/*--------------------------------*- C++ -*----------------------------------*\
  =========                 |
  \\      /  F ield         | OpenFOAM: The Open Source CFD Toolbox
   \\    /   O peration     | Website:  https://openfoam.org
    \\  /    A nd           | Version:  8
     \\/     M anipulation  |
\*---------------------------------------------------------------------------*/
FoamFile
{
    version     2.0;
    format      ascii;
    class       volScalarField;
    location    "459";
    object      nut;
}
// * * * * * * * * * * * * * * * * * * * * * * * * * * * * * * * * * * * * * //

dimensions      [0 2 -1 0 0 0 0];

internalField   nonuniform List<scalar> 
36000
(
5.65328e-16
2.37467e-14
2.74482e-13
1.6364e-12
6.74763e-12
2.21724e-11
6.26491e-11
1.5918e-10
3.74137e-10
8.29064e-10
1.75543e-09
3.58688e-09
7.12705e-09
1.38557e-08
2.64897e-08
5.00097e-08
9.3507e-08
1.73303e-07
4.04632e-07
1.00019e-06
2.12709e-06
4.01597e-06
6.91598e-06
1.10753e-05
1.67132e-05
2.40365e-05
3.32628e-05
4.46175e-05
5.83247e-05
7.45984e-05
9.36343e-05
0.000115602
0.000140634
0.00016882
0.000200192
0.000234717
0.00027228
0.000312677
0.000355595
0.0004006
0.000447121
0.000494437
0.000541671
0.000587782
0.000631578
0.000671789
0.000708332
0.000741237
0.000770627
0.000796683
0.000819623
0.00083968
0.000857084
0.000872047
0.000884752
0.000895342
0.000903913
0.000910501
0.00091507
0.000917487
0.000917487
0.00091507
0.000910501
0.000903913
0.000895342
0.000884752
0.000872047
0.000857084
0.00083968
0.000819623
0.000796683
0.000770627
0.000741237
0.000708331
0.000671789
0.000631578
0.000587782
0.000541671
0.000494437
0.00044712
0.0004006
0.000355595
0.000312677
0.00027228
0.000234716
0.000200192
0.00016882
0.000140634
0.000115602
9.36342e-05
7.45983e-05
5.83247e-05
4.46175e-05
3.32628e-05
2.40365e-05
1.67132e-05
1.10753e-05
6.91597e-06
4.01597e-06
2.12708e-06
1.00019e-06
4.04632e-07
1.73303e-07
9.3507e-08
5.00097e-08
2.64897e-08
1.38557e-08
7.12705e-09
3.58688e-09
1.75543e-09
8.29064e-10
3.74137e-10
1.5918e-10
6.26491e-11
2.21724e-11
6.74763e-12
1.6364e-12
2.74482e-13
2.37467e-14
5.65329e-16
1.66667e-19
3.34454e-17
9.5611e-16
1.05272e-14
6.94294e-14
3.36224e-13
1.32946e-12
4.56314e-12
1.41234e-11
4.04217e-11
1.08843e-10
2.79156e-10
6.88085e-10
1.6407e-09
3.80233e-09
8.59097e-09
1.89496e-08
4.0767e-08
1.11716e-07
3.26662e-07
7.74887e-07
1.56028e-06
2.76593e-06
4.45414e-06
6.67989e-06
9.50279e-06
1.29933e-05
1.72353e-05
2.23262e-05
2.83772e-05
3.5512e-05
4.38663e-05
5.3585e-05
6.48198e-05
7.77255e-05
9.24545e-05
0.000109151
0.000127941
0.000148927
0.000172173
0.000197697
0.000225458
0.000255347
0.000287178
0.00032069
0.000355548
0.000391366
0.000427714
0.000464131
0.000500141
0.000535263
0.000569021
0.000600955
0.000630617
0.000657571
0.000681387
0.000701618
0.000717779
0.000729308
0.000735517
0.000735517
0.000729308
0.000717779
0.000701618
0.000681387
0.000657571
0.000630616
0.000600955
0.000569021
0.000535262
0.00050014
0.00046413
0.000427713
0.000391366
0.000355548
0.00032069
0.000287178
0.000255347
0.000225458
0.000197697
0.000172173
0.000148927
0.000127941
0.00010915
9.24544e-05
7.77254e-05
6.48197e-05
5.35849e-05
4.38663e-05
3.5512e-05
2.83771e-05
2.23262e-05
1.72353e-05
1.29933e-05
9.50278e-06
6.67989e-06
4.45414e-06
2.76592e-06
1.56028e-06
7.74886e-07
3.26661e-07
1.11716e-07
4.0767e-08
1.89496e-08
8.59097e-09
3.80233e-09
1.6407e-09
6.88085e-10
2.79156e-10
1.08843e-10
4.04217e-11
1.41234e-11
4.56314e-12
1.32946e-12
3.36224e-13
6.94294e-14
1.05272e-14
9.5611e-16
3.34454e-17
1.66667e-19
7.18894e-20
1.44305e-17
4.12728e-16
4.54746e-15
3.00196e-14
1.45555e-13
5.76471e-13
1.98279e-12
6.15342e-12
1.76713e-11
4.77874e-11
1.23221e-10
3.05752e-10
7.3506e-10
1.72075e-09
3.93591e-09
8.8119e-09
1.93009e-08
5.43292e-08
1.66992e-07
4.18335e-07
8.88904e-07
1.65074e-06
2.75487e-06
4.23523e-06
6.11997e-06
8.44e-06
1.12335e-05
1.4548e-05
1.84402e-05
2.29768e-05
2.82337e-05
3.42958e-05
4.12567e-05
4.92177e-05
5.82869e-05
6.85771e-05
8.02037e-05
9.32809e-05
0.000107918
0.000124215
0.000142254
0.000162095
0.000183765
0.000207253
0.0002325
0.000259391
0.000287752
0.00031734
0.000347845
0.000378882
0.000410001
0.000440679
0.000470329
0.000498298
0.000523869
0.000546257
0.000564601
0.000577945
0.000585223
0.000585223
0.000577945
0.000564601
0.000546257
0.000523869
0.000498298
0.000470329
0.000440679
0.000410001
0.000378882
0.000347844
0.00031734
0.000287752
0.000259391
0.0002325
0.000207253
0.000183765
0.000162095
0.000142254
0.000124215
0.000107918
9.32809e-05
8.02036e-05
6.85771e-05
5.82869e-05
4.92177e-05
4.12566e-05
3.42957e-05
2.82337e-05
2.29768e-05
1.84402e-05
1.4548e-05
1.12335e-05
8.43999e-06
6.11996e-06
4.23523e-06
2.75487e-06
1.65074e-06
8.88903e-07
4.18334e-07
1.66991e-07
5.43291e-08
1.93009e-08
8.8119e-09
3.93591e-09
1.72075e-09
7.3506e-10
3.05752e-10
1.23221e-10
4.77874e-11
1.76713e-11
6.15343e-12
1.98279e-12
5.76472e-13
1.45556e-13
3.00196e-14
4.54745e-15
4.12728e-16
1.44306e-17
7.18896e-20
4.61685e-20
9.26751e-18
2.65061e-16
2.92045e-15
1.92791e-14
9.34792e-14
3.70229e-13
1.27344e-12
3.95222e-12
1.13508e-11
3.06994e-11
7.91766e-11
1.96533e-10
4.72761e-10
1.10775e-09
2.53752e-09
5.6943e-09
1.25172e-08
3.54948e-08
1.1096e-07
2.84956e-07
6.24412e-07
1.19687e-06
2.05439e-06
3.23006e-06
4.74388e-06
6.61229e-06
8.85493e-06
1.14979e-05
1.45754e-05
1.81284e-05
2.22049e-05
2.68601e-05
3.2156e-05
3.81614e-05
4.4951e-05
5.26053e-05
6.12096e-05
7.08522e-05
8.1623e-05
9.36109e-05
0.000106901
0.000121568
0.000137675
0.000155267
0.000174358
0.000194931
0.000216926
0.000240228
0.000264662
0.000289982
0.000315862
0.000341886
0.000367544
0.000392226
0.000415216
0.000435688
0.00045271
0.000465237
0.000472122
0.000472122
0.000465237
0.00045271
0.000435688
0.000415216
0.000392226
0.000367544
0.000341886
0.000315862
0.000289982
0.000264662
0.000240228
0.000216925
0.000194931
0.000174358
0.000155267
0.000137675
0.000121568
0.0001069
9.36109e-05
8.1623e-05
7.08521e-05
6.12096e-05
5.26053e-05
4.49509e-05
3.81613e-05
3.2156e-05
2.68601e-05
2.22049e-05
1.81284e-05
1.45754e-05
1.14979e-05
8.85492e-06
6.61228e-06
4.74387e-06
3.23005e-06
2.05439e-06
1.19687e-06
6.24411e-07
2.84956e-07
1.1096e-07
3.54948e-08
1.25172e-08
5.6943e-09
2.53752e-09
1.10775e-09
4.72762e-10
1.96534e-10
7.91766e-11
3.06994e-11
1.13508e-11
3.95222e-12
1.27344e-12
3.70229e-13
9.34792e-14
1.92791e-14
2.92045e-15
2.6506e-16
9.26753e-18
4.61686e-20
3.36462e-20
6.75388e-18
1.93168e-16
2.12834e-15
1.40501e-14
6.8125e-14
2.69814e-13
9.28062e-13
2.88034e-12
8.27257e-12
2.23751e-11
5.77123e-11
1.43274e-10
3.44728e-10
8.08065e-10
1.85223e-09
4.16084e-09
9.16181e-09
2.60736e-08
8.22655e-08
2.14322e-07
4.78785e-07
9.37938e-07
1.64414e-06
2.63206e-06
3.92227e-06
5.52856e-06
7.46402e-06
9.74382e-06
1.23858e-05
1.5416e-05
1.8867e-05
2.27781e-05
2.71943e-05
3.21654e-05
3.77463e-05
4.39968e-05
5.0981e-05
5.87667e-05
6.74242e-05
7.70248e-05
8.76388e-05
9.93328e-05
0.000112166
0.000126187
0.000141427
0.000157893
0.000175564
0.000194378
0.000214225
0.000234934
0.000256266
0.0002779
0.00029942
0.000320309
0.000339941
0.000357571
0.000372338
0.000383271
0.000389304
0.000389304
0.000383271
0.000372338
0.000357571
0.000339941
0.000320309
0.000299419
0.000277899
0.000256266
0.000234934
0.000214225
0.000194378
0.000175564
0.000157893
0.000141427
0.000126187
0.000112166
9.93328e-05
8.76388e-05
7.70247e-05
6.74241e-05
5.87666e-05
5.09809e-05
4.39967e-05
3.77463e-05
3.21654e-05
2.71943e-05
2.27781e-05
1.88669e-05
1.5416e-05
1.23858e-05
9.74381e-06
7.46402e-06
5.52855e-06
3.92227e-06
2.63206e-06
1.64413e-06
9.37936e-07
4.78785e-07
2.14322e-07
8.22654e-08
2.60736e-08
9.16181e-09
4.16084e-09
1.85223e-09
8.08065e-10
3.44728e-10
1.43274e-10
5.77123e-11
2.23751e-11
8.27257e-12
2.88034e-12
9.28062e-13
2.69814e-13
6.8125e-14
1.40501e-14
2.12834e-15
1.93168e-16
6.75389e-18
3.36463e-20
2.64901e-20
5.31741e-18
1.52084e-16
1.67567e-15
1.10618e-14
5.36357e-14
2.12428e-13
7.30679e-13
2.26776e-12
6.51325e-12
1.76169e-11
4.54409e-11
1.12816e-10
2.71469e-10
6.36445e-10
1.45924e-09
3.27954e-09
7.22678e-09
2.0604e-08
6.53196e-08
1.71599e-07
3.88164e-07
7.72316e-07
1.37607e-06
2.23637e-06
3.37479e-06
4.80311e-06
6.52985e-06
8.56566e-06
1.09264e-05
1.36312e-05
1.6703e-05
2.01664e-05
2.40516e-05
2.83967e-05
3.32449e-05
3.86419e-05
4.4637e-05
5.12827e-05
5.86338e-05
6.67464e-05
7.56764e-05
8.54779e-05
9.61999e-05
0.000107884
0.000120559
0.000134238
0.00014891
0.000164533
0.000181028
0.000198267
0.000216063
0.000234159
0.000252216
0.000269805
0.000286393
0.000301342
0.000313905
0.00032323
0.000328385
0.000328385
0.00032323
0.000313905
0.000301342
0.000286393
0.000269804
0.000252216
0.000234159
0.000216063
0.000198267
0.000181028
0.000164533
0.00014891
0.000134238
0.000120559
0.000107884
9.61998e-05
8.54778e-05
7.56764e-05
6.67463e-05
5.86337e-05
5.12827e-05
4.4637e-05
3.86418e-05
3.32448e-05
2.83967e-05
2.40516e-05
2.01663e-05
1.6703e-05
1.36311e-05
1.09264e-05
8.56566e-06
6.52984e-06
4.80311e-06
3.37479e-06
2.23636e-06
1.37606e-06
7.72315e-07
3.88163e-07
1.71599e-07
6.53195e-08
2.0604e-08
7.22678e-09
3.27954e-09
1.45924e-09
6.36445e-10
2.71469e-10
1.12816e-10
4.54409e-11
1.76169e-11
6.51325e-12
2.26776e-12
7.30679e-13
2.12428e-13
5.36358e-14
1.10618e-14
1.67567e-15
1.52084e-16
5.31742e-18
2.64901e-20
2.15853e-20
4.33287e-18
1.23924e-16
1.36541e-15
9.01365e-15
4.37048e-14
1.73096e-13
5.95392e-13
1.84788e-12
5.30736e-12
1.43554e-11
3.70292e-11
9.19362e-11
2.21241e-10
5.1875e-10
1.18963e-09
2.67453e-09
5.89696e-09
1.68341e-08
5.35546e-08
1.41544e-07
3.23161e-07
6.50824e-07
1.17533e-06
1.93545e-06
2.95528e-06
4.24783e-06
5.82077e-06
7.68114e-06
9.83809e-06
1.23042e-05
1.50964e-05
1.82378e-05
2.1755e-05
2.56743e-05
3.00223e-05
3.48353e-05
4.01539e-05
4.60201e-05
5.24769e-05
5.95689e-05
6.73403e-05
7.58337e-05
8.50885e-05
9.51375e-05
0.000106004
0.000117699
0.000130213
0.000143513
0.000157534
0.000172173
0.000187275
0.000202629
0.000217953
0.000232886
0.00024698
0.000259692
0.000270384
0.000278327
0.00028272
0.00028272
0.000278327
0.000270384
0.000259692
0.00024698
0.000232886
0.000217953
0.000202629
0.000187275
0.000172173
0.000157534
0.000143513
0.000130213
0.000117699
0.000106004
9.51374e-05
8.50884e-05
7.58337e-05
6.73402e-05
5.95689e-05
5.24769e-05
4.602e-05
4.01539e-05
3.48353e-05
3.00223e-05
2.56743e-05
2.1755e-05
1.82378e-05
1.50963e-05
1.23042e-05
9.83808e-06
7.68113e-06
5.82077e-06
4.24782e-06
2.95527e-06
1.93545e-06
1.17533e-06
6.50823e-07
3.23161e-07
1.41544e-07
5.35546e-08
1.68341e-08
5.89696e-09
2.67453e-09
1.18963e-09
5.1875e-10
2.21241e-10
9.19362e-11
3.70292e-11
1.43554e-11
5.30736e-12
1.84788e-12
5.95392e-13
1.73096e-13
4.37048e-14
9.01365e-15
1.36541e-15
1.23924e-16
4.33287e-18
2.15853e-20
1.80718e-20
3.62759e-18
1.03753e-16
1.14316e-15
7.54646e-15
3.65908e-14
1.44921e-13
4.98479e-13
1.5471e-12
4.4435e-12
1.20189e-11
3.10027e-11
7.69753e-11
1.85246e-10
4.3438e-10
9.96271e-10
2.24027e-09
4.94122e-09
1.41176e-08
4.50188e-08
1.19501e-07
2.74751e-07
5.5867e-07
1.02022e-06
1.69917e-06
2.62175e-06
3.80266e-06
5.24972e-06
6.96856e-06
8.96561e-06
1.12498e-05
1.38334e-05
1.67318e-05
1.99639e-05
2.35536e-05
2.75298e-05
3.19195e-05
3.67477e-05
4.20458e-05
4.78506e-05
5.41979e-05
6.11228e-05
6.86587e-05
7.68362e-05
8.56806e-05
9.52093e-05
0.000105428
0.000116328
0.00012788
0.000140026
0.000152678
0.000165705
0.000178927
0.000192106
0.000204935
0.000217034
0.00022794
0.00023711
0.000243921
0.000247688
0.000247688
0.000243921
0.00023711
0.00022794
0.000217034
0.000204935
0.000192106
0.000178927
0.000165705
0.000152678
0.000140026
0.00012788
0.000116328
0.000105428
9.52092e-05
8.56806e-05
7.68362e-05
6.86587e-05
6.11227e-05
5.41979e-05
4.78506e-05
4.20458e-05
3.67476e-05
3.19195e-05
2.75298e-05
2.35536e-05
1.99639e-05
1.67318e-05
1.38334e-05
1.12498e-05
8.9656e-06
6.96855e-06
5.24972e-06
3.80265e-06
2.62175e-06
1.69916e-06
1.02022e-06
5.58669e-07
2.74751e-07
1.19501e-07
4.50188e-08
1.41176e-08
4.94122e-09
2.24027e-09
9.96271e-10
4.3438e-10
1.85246e-10
7.69753e-11
3.10027e-11
1.20189e-11
4.4435e-12
1.5471e-12
4.98479e-13
1.44921e-13
3.65909e-14
7.54647e-15
1.14316e-15
1.03753e-16
3.62759e-18
1.80718e-20
1.53463e-20
3.08051e-18
8.81057e-17
9.70755e-16
6.40837e-15
3.10725e-14
1.23065e-13
4.23304e-13
1.31379e-12
3.7734e-12
1.02065e-11
2.63277e-11
6.53693e-11
1.5732e-10
3.6892e-10
8.46219e-10
1.90319e-09
4.19896e-09
1.2005e-08
3.83557e-08
1.02169e-07
2.36244e-07
4.84232e-07
8.92847e-07
1.50216e-06
2.34027e-06
3.42375e-06
4.76137e-06
6.35836e-06
8.21968e-06
1.03518e-05
1.27639e-05
1.54677e-05
1.84781e-05
2.18125e-05
2.54911e-05
2.95367e-05
3.39775e-05
3.88397e-05
4.4144e-05
4.99176e-05
5.61909e-05
6.29907e-05
7.03405e-05
7.82591e-05
8.67586e-05
9.58411e-05
0.000105496
0.000115694
0.000126385
0.000137489
0.000148894
0.000160442
0.000171929
0.000183091
0.000193601
0.000203063
0.000211011
0.00021691
0.000220172
0.000220172
0.00021691
0.000211011
0.000203063
0.000193601
0.000183091
0.000171929
0.000160442
0.000148894
0.000137489
0.000126385
0.000115694
0.000105496
9.5841e-05
8.67585e-05
7.82591e-05
7.03404e-05
6.29906e-05
5.61908e-05
4.99176e-05
4.4144e-05
3.88396e-05
3.39775e-05
2.95367e-05
2.54911e-05
2.18125e-05
1.84781e-05
1.54677e-05
1.27639e-05
1.03518e-05
8.21967e-06
6.35836e-06
4.76136e-06
3.42374e-06
2.34027e-06
1.50216e-06
8.92845e-07
4.84232e-07
2.36243e-07
1.02169e-07
3.83556e-08
1.2005e-08
4.19896e-09
1.90319e-09
8.46219e-10
3.6892e-10
1.5732e-10
6.53693e-11
2.63277e-11
1.02065e-11
3.7734e-12
1.31379e-12
4.23304e-13
1.23065e-13
3.10726e-14
6.40837e-15
9.70755e-16
8.81057e-17
3.08051e-18
1.53464e-20
1.3198e-20
2.64926e-18
7.57717e-17
8.34858e-16
5.51126e-15
2.67227e-14
1.05837e-13
3.64045e-13
1.12987e-12
3.24517e-12
8.77774e-12
2.26424e-11
5.62198e-11
1.35304e-10
3.17304e-10
7.27876e-10
1.63723e-09
3.61297e-09
1.03349e-08
3.30688e-08
8.83307e-08
2.05195e-07
4.23431e-07
7.8728e-07
1.33657e-06
2.10076e-06
3.09823e-06
4.33898e-06
5.82846e-06
7.57084e-06
9.57102e-06
1.18358e-05
1.43742e-05
1.71978e-05
2.03204e-05
2.37582e-05
2.7529e-05
3.16526e-05
3.61505e-05
4.10487e-05
4.63689e-05
5.21255e-05
5.83391e-05
6.50309e-05
7.22145e-05
7.98974e-05
8.80784e-05
9.67449e-05
0.000105869
0.000115404
0.000125278
0.000135391
0.000145604
0.000155739
0.000165566
0.000174801
0.000183103
0.000190067
0.00019523
0.000198083
0.000198083
0.00019523
0.000190067
0.000183103
0.000174801
0.000165566
0.000155739
0.000145604
0.000135391
0.000125278
0.000115404
0.000105869
9.67449e-05
8.80783e-05
7.98973e-05
7.22145e-05
6.50309e-05
5.83391e-05
5.21254e-05
4.63689e-05
4.10487e-05
3.61504e-05
3.16526e-05
2.7529e-05
2.37581e-05
2.03204e-05
1.71978e-05
1.43742e-05
1.18358e-05
9.57101e-06
7.57083e-06
5.82846e-06
4.33897e-06
3.09823e-06
2.10076e-06
1.33657e-06
7.87279e-07
4.2343e-07
2.05195e-07
8.83306e-08
3.30688e-08
1.03349e-08
3.61297e-09
1.63723e-09
7.27876e-10
3.17304e-10
1.35304e-10
5.62198e-11
2.26424e-11
8.77774e-12
3.24517e-12
1.12987e-12
3.64045e-13
1.05837e-13
2.67227e-14
5.51126e-15
8.34858e-16
7.57717e-17
2.64927e-18
1.3198e-20
1.14397e-20
2.29633e-18
6.56774e-17
7.23638e-16
4.77705e-15
2.31627e-14
9.17376e-14
3.15547e-13
9.79351e-13
2.81286e-12
7.60841e-12
1.96263e-11
4.87313e-11
1.17284e-10
2.75054e-10
6.30997e-10
1.41947e-09
3.13301e-09
8.96586e-09
2.87243e-08
7.69056e-08
1.79359e-07
3.72277e-07
6.97313e-07
1.19358e-06
1.8915e-06
2.8111e-06
3.96379e-06
5.35565e-06
6.99058e-06
8.87244e-06
1.10064e-05
1.33994e-05
1.60605e-05
1.90007e-05
2.22329e-05
2.57716e-05
2.96327e-05
3.38332e-05
3.83907e-05
4.33236e-05
4.86538e-05
5.43942e-05
6.05502e-05
6.71342e-05
7.41523e-05
8.16008e-05
8.94657e-05
9.77197e-05
0.000106319
0.000115197
0.000124264
0.000133397
0.000142437
0.000151183
0.000159386
0.000166747
0.000172913
0.00017748
0.000180001
0.000180001
0.00017748
0.000172913
0.000166747
0.000159386
0.000151183
0.000142437
0.000133397
0.000124264
0.000115197
0.000106318
9.77197e-05
8.94657e-05
8.16008e-05
7.41523e-05
6.71342e-05
6.05502e-05
5.43942e-05
4.86538e-05
4.33236e-05
3.83906e-05
3.38331e-05
2.96326e-05
2.57715e-05
2.22329e-05
1.90007e-05
1.60605e-05
1.33994e-05
1.10064e-05
8.87243e-06
6.99057e-06
5.35565e-06
3.96379e-06
2.8111e-06
1.8915e-06
1.19357e-06
6.97311e-07
3.72276e-07
1.79359e-07
7.69054e-08
2.87243e-08
8.96585e-09
3.13301e-09
1.41947e-09
6.30997e-10
2.75054e-10
1.17284e-10
4.87313e-11
1.96263e-11
7.60841e-12
2.81286e-12
9.79351e-13
3.15547e-13
9.17377e-14
2.31627e-14
4.77705e-15
7.23638e-16
6.56773e-17
2.29633e-18
1.14398e-20
9.98599e-21
2.00451e-18
5.73311e-17
6.31678e-16
4.16998e-15
2.02192e-14
8.00797e-14
2.75448e-13
8.54897e-13
2.45541e-12
6.64158e-12
1.71323e-11
4.25394e-11
1.02383e-10
2.40116e-10
5.50873e-10
1.23934e-09
2.73583e-09
7.83204e-09
2.51181e-08
6.73825e-08
1.57678e-07
3.28931e-07
6.2018e-07
1.06951e-06
1.70787e-06
2.55669e-06
3.62882e-06
4.93119e-06
6.46782e-06
8.24198e-06
1.02577e-05
1.25202e-05
1.50367e-05
1.78159e-05
2.08681e-05
2.42051e-05
2.78396e-05
3.17854e-05
3.60566e-05
4.06672e-05
4.56307e-05
5.09609e-05
5.6672e-05
6.27631e-05
6.92307e-05
7.60726e-05
8.3275e-05
9.0811e-05
9.86388e-05
0.000106698
0.000114906
0.000123152
0.000131294
0.000139154
0.000146511
0.000153101
0.000158613
0.000162692
0.000164942
0.000164942
0.000162692
0.000158613
0.000153101
0.000146511
0.000139154
0.000131294
0.000123152
0.000114906
0.000106698
9.86388e-05
9.0811e-05
8.3275e-05
7.60726e-05
6.92306e-05
6.27631e-05
5.6672e-05
5.09609e-05
4.56307e-05
4.06672e-05
3.60566e-05
3.17854e-05
2.78396e-05
2.4205e-05
2.08681e-05
1.78159e-05
1.50367e-05
1.25202e-05
1.02576e-05
8.24197e-06
6.46781e-06
4.93119e-06
3.62881e-06
2.55669e-06
1.70787e-06
1.06951e-06
6.20179e-07
3.2893e-07
1.57678e-07
6.73824e-08
2.5118e-08
7.83203e-09
2.73583e-09
1.23934e-09
5.50873e-10
2.40116e-10
1.02383e-10
4.25394e-11
1.71323e-11
6.64158e-12
2.45541e-12
8.54897e-13
2.75448e-13
8.00797e-14
2.02192e-14
4.16998e-15
6.31678e-16
5.73311e-17
2.00451e-18
9.98601e-21
8.76166e-21
1.75875e-18
5.03021e-17
5.54232e-16
3.65872e-15
1.77402e-14
7.02616e-14
2.41677e-13
7.50083e-13
2.15437e-12
5.82732e-12
1.5032e-11
3.73245e-11
8.98332e-11
2.10688e-10
4.83381e-10
1.08758e-09
2.40114e-09
6.87605e-09
2.20722e-08
5.93129e-08
1.39202e-07
2.91685e-07
5.53209e-07
9.60569e-07
1.54489e-06
2.32876e-06
3.32641e-06
4.54582e-06
5.99136e-06
7.66607e-06
9.57314e-06
1.17167e-05
1.41023e-05
1.67369e-05
1.96286e-05
2.2787e-05
2.62225e-05
2.9946e-05
3.3969e-05
3.83024e-05
4.29568e-05
4.79411e-05
5.3262e-05
5.89268e-05
6.49353e-05
7.12703e-05
7.79157e-05
8.48497e-05
9.20326e-05
9.94081e-05
0.0001069
0.000114409
0.000121805
0.00012893
0.000135586
0.000141538
0.000146509
0.000150183
0.000152209
0.000152209
0.000150183
0.000146509
0.000141538
0.000135586
0.00012893
0.000121805
0.000114409
0.0001069
9.94081e-05
9.20326e-05
8.48497e-05
7.79157e-05
7.12702e-05
6.49353e-05
5.89268e-05
5.3262e-05
4.79411e-05
4.29568e-05
3.83024e-05
3.39689e-05
2.9946e-05
2.62225e-05
2.2787e-05
1.96286e-05
1.67368e-05
1.41023e-05
1.17167e-05
9.57313e-06
7.66607e-06
5.99135e-06
4.54581e-06
3.32641e-06
2.32876e-06
1.54489e-06
9.60568e-07
5.53208e-07
2.91684e-07
1.39202e-07
5.93128e-08
2.20722e-08
6.87605e-09
2.40114e-09
1.08758e-09
4.83381e-10
2.10688e-10
8.98332e-11
3.73245e-11
1.5032e-11
5.82732e-12
2.15437e-12
7.50084e-13
2.41677e-13
7.02616e-14
1.77402e-14
3.65872e-15
5.54232e-16
5.0302e-17
1.75875e-18
8.76168e-21
7.72347e-21
1.55035e-18
4.43416e-17
4.88559e-16
3.22519e-15
1.56381e-14
6.19361e-14
2.1304e-13
6.61205e-13
1.8991e-12
5.13684e-12
1.32509e-11
3.29023e-11
7.91908e-11
1.85732e-10
4.26141e-10
9.58854e-10
2.11719e-09
6.06455e-09
1.94827e-08
5.24324e-08
1.2337e-07
2.59532e-07
4.9485e-07
8.64647e-07
1.39993e-06
2.12414e-06
3.05279e-06
4.19498e-06
5.55569e-06
7.13794e-06
8.94443e-06
1.09784e-05
1.32441e-05
1.57471e-05
1.84939e-05
2.1492e-05
2.47499e-05
2.82764e-05
3.20805e-05
3.61709e-05
4.05555e-05
4.52409e-05
5.02314e-05
5.55281e-05
6.11287e-05
6.70299e-05
7.32113e-05
7.96366e-05
8.62725e-05
9.30695e-05
9.99574e-05
0.000106845
0.000113614
0.000120122
0.00012619
0.000131608
0.000136127
0.000139463
0.000141301
0.000141301
0.000139463
0.000136127
0.000131608
0.00012619
0.000120122
0.000113614
0.000106844
9.99574e-05
9.30695e-05
8.62724e-05
7.96366e-05
7.32112e-05
6.70299e-05
6.11287e-05
5.55281e-05
5.02314e-05
4.52409e-05
4.05555e-05
3.61709e-05
3.20805e-05
2.82764e-05
2.47499e-05
2.1492e-05
1.84938e-05
1.57471e-05
1.32441e-05
1.09784e-05
8.94442e-06
7.13794e-06
5.55568e-06
4.19498e-06
3.05279e-06
2.12413e-06
1.39993e-06
8.64646e-07
4.94849e-07
2.59531e-07
1.2337e-07
5.24323e-08
1.94827e-08
6.06455e-09
2.11719e-09
9.58854e-10
4.26141e-10
1.85732e-10
7.91908e-11
3.29023e-11
1.32509e-11
5.13684e-12
1.89909e-12
6.61205e-13
2.1304e-13
6.19361e-14
1.56381e-14
3.22519e-15
4.88559e-16
4.43416e-17
1.55035e-18
7.72349e-21
6.83435e-21
1.37187e-18
3.92371e-17
4.32317e-16
2.85391e-15
1.38379e-14
5.48061e-14
1.88515e-13
5.85088e-13
1.68048e-12
4.54551e-12
1.17255e-11
2.9115e-11
7.0076e-11
1.64358e-10
3.77112e-10
8.48586e-10
1.87391e-09
5.36899e-09
1.72603e-08
4.65129e-08
1.09691e-07
2.31571e-07
4.43667e-07
7.79708e-07
1.27031e-06
1.93953e-06
2.80403e-06
3.87404e-06
5.15527e-06
6.65099e-06
8.36361e-06
1.02957e-05
1.24507e-05
1.48327e-05
1.74471e-05
2.02998e-05
2.33975e-05
2.67472e-05
3.0356e-05
3.42307e-05
3.83771e-05
4.27997e-05
4.7501e-05
5.24804e-05
5.77331e-05
6.32491e-05
6.90144e-05
7.50089e-05
8.11864e-05
8.74915e-05
9.38641e-05
0.000100222
0.00010646
0.000112444
0.000118015
0.000122981
0.000127117
0.000130168
0.000131848
0.000131848
0.000130168
0.000127117
0.000122981
0.000118015
0.000112444
0.00010646
0.000100222
9.38641e-05
8.74915e-05
8.11864e-05
7.50089e-05
6.90144e-05
6.32491e-05
5.77331e-05
5.24804e-05
4.7501e-05
4.27997e-05
3.83771e-05
3.42307e-05
3.0356e-05
2.67472e-05
2.33975e-05
2.02998e-05
1.74471e-05
1.48327e-05
1.24507e-05
1.02957e-05
8.3636e-06
6.65098e-06
5.15526e-06
3.87403e-06
2.80403e-06
1.93952e-06
1.2703e-06
7.79707e-07
4.43667e-07
2.31571e-07
1.09691e-07
4.65128e-08
1.72603e-08
5.36899e-09
1.87391e-09
8.48586e-10
3.77112e-10
1.64358e-10
7.0076e-11
2.9115e-11
1.17255e-11
4.54551e-12
1.68048e-12
5.85088e-13
1.88515e-13
5.48061e-14
1.38379e-14
2.85391e-15
4.32317e-16
3.9237e-17
1.37188e-18
6.83436e-21
6.06967e-21
1.21838e-18
3.48469e-17
3.83946e-16
2.53459e-15
1.22896e-14
4.8674e-14
1.67423e-13
5.19624e-13
1.49245e-12
4.03694e-12
1.04137e-11
2.58577e-11
6.22367e-11
1.45974e-10
3.34941e-10
7.53732e-10
1.6646e-09
4.77033e-09
1.53454e-08
4.14014e-08
9.7836e-08
2.07198e-07
3.98709e-07
7.04438e-07
1.15439e-06
1.77299e-06
2.57786e-06
3.58034e-06
4.78698e-06
6.20145e-06
7.82611e-06
9.66311e-06
1.1715e-05
1.39852e-05
1.64777e-05
1.91972e-05
2.21491e-05
2.53387e-05
2.87717e-05
3.24531e-05
3.63871e-05
4.05766e-05
4.50224e-05
4.97225e-05
5.46712e-05
5.98577e-05
6.5265e-05
7.0868e-05
7.66377e-05
8.2528e-05
8.8466e-05
9.4371e-05
0.000100151
0.000105686
0.000110831
0.000115411
0.000119221
0.00012203
0.000123575
0.000123575
0.00012203
0.000119221
0.000115411
0.000110831
0.000105686
0.00010015
9.4371e-05
8.8466e-05
8.2528e-05
7.66377e-05
7.0868e-05
6.52649e-05
5.98577e-05
5.46712e-05
4.97225e-05
4.50224e-05
4.05766e-05
3.63871e-05
3.24531e-05
2.87717e-05
2.53387e-05
2.21491e-05
1.91972e-05
1.64777e-05
1.39852e-05
1.1715e-05
9.6631e-06
7.8261e-06
6.20144e-06
4.78698e-06
3.58033e-06
2.57786e-06
1.77299e-06
1.15438e-06
7.04437e-07
3.98709e-07
2.07198e-07
9.78358e-08
4.14013e-08
1.53454e-08
4.77033e-09
1.6646e-09
7.53732e-10
3.34941e-10
1.45974e-10
6.22367e-11
2.58577e-11
1.04137e-11
4.03694e-12
1.49245e-12
5.19624e-13
1.67423e-13
4.8674e-14
1.22896e-14
2.53459e-15
3.83946e-16
3.48469e-17
1.21838e-18
6.06968e-21
5.40776e-21
1.08551e-18
3.10468e-17
3.42076e-16
2.25819e-15
1.09494e-14
4.3366e-14
1.49165e-13
4.62959e-13
1.3297e-12
3.59671e-12
9.27809e-12
2.30381e-11
5.54507e-11
1.3006e-10
2.98434e-10
6.71611e-10
1.48336e-09
4.25179e-09
1.36851e-08
3.69614e-08
8.75039e-08
1.85848e-07
3.59051e-07
6.3749e-07
1.05038e-06
1.62228e-06
2.37163e-06
3.3108e-06
4.44726e-06
5.7852e-06
7.32709e-06
9.07483e-06
1.10305e-05
1.31965e-05
1.55762e-05
1.8173e-05
2.09911e-05
2.40348e-05
2.73081e-05
3.08148e-05
3.45578e-05
3.85385e-05
4.27565e-05
4.72086e-05
5.18881e-05
5.67836e-05
6.18781e-05
6.71471e-05
7.25571e-05
7.80654e-05
8.36208e-05
8.91472e-05
9.4542e-05
9.96915e-05
0.000104466
0.000108711
0.00011224
0.000114838
0.000116267
0.000116267
0.000114838
0.00011224
0.000108711
0.000104466
9.96915e-05
9.4542e-05
8.91472e-05
8.36208e-05
7.80654e-05
7.25571e-05
6.71471e-05
6.18781e-05
5.67836e-05
5.18881e-05
4.72086e-05
4.27565e-05
3.85385e-05
3.45578e-05
3.08148e-05
2.73081e-05
2.40348e-05
2.09911e-05
1.8173e-05
1.55761e-05
1.31965e-05
1.10305e-05
9.07483e-06
7.32708e-06
5.7852e-06
4.44726e-06
3.3108e-06
2.37162e-06
1.62228e-06
1.05037e-06
6.37489e-07
3.5905e-07
1.85847e-07
8.75038e-08
3.69613e-08
1.36851e-08
4.25179e-09
1.48336e-09
6.71611e-10
2.98434e-10
1.3006e-10
5.54507e-11
2.30381e-11
9.27809e-12
3.59671e-12
1.3297e-12
4.62959e-13
1.49165e-13
4.3366e-14
1.09494e-14
2.25819e-15
3.42076e-16
3.10468e-17
1.08551e-18
5.40777e-21
4.83334e-21
9.70207e-19
2.77489e-17
3.0574e-16
2.01832e-15
9.78632e-15
3.87596e-14
1.3332e-13
4.13782e-13
1.18846e-12
3.21467e-12
8.2926e-12
2.05911e-11
4.95615e-11
1.16248e-10
2.66749e-10
6.00332e-10
1.32603e-09
3.80153e-09
1.22422e-08
3.30963e-08
7.84838e-08
1.67123e-07
3.24052e-07
5.77965e-07
9.57159e-07
1.48615e-06
2.18397e-06
3.0639e-06
4.13433e-06
5.4001e-06
6.86394e-06
8.52766e-06
1.03929e-05
1.24616e-05
1.47361e-05
1.72192e-05
1.9914e-05
2.28236e-05
2.5951e-05
2.92988e-05
3.28687e-05
3.6661e-05
4.06743e-05
4.49043e-05
4.93437e-05
5.39808e-05
5.87983e-05
6.37725e-05
6.8871e-05
7.40518e-05
7.92606e-05
8.4432e-05
8.94875e-05
9.43199e-05
9.87955e-05
0.000102759
0.000106044
0.000108458
0.000109784
0.000109784
0.000108458
0.000106044
0.000102759
9.87955e-05
9.43199e-05
8.94875e-05
8.4432e-05
7.92605e-05
7.40518e-05
6.8871e-05
6.37724e-05
5.87983e-05
5.39808e-05
4.93437e-05
4.49043e-05
4.06742e-05
3.6661e-05
3.28687e-05
2.92988e-05
2.5951e-05
2.28236e-05
1.9914e-05
1.72192e-05
1.47361e-05
1.24616e-05
1.03929e-05
8.52765e-06
6.86393e-06
5.40009e-06
4.13432e-06
3.06389e-06
2.18397e-06
1.48615e-06
9.57157e-07
5.77964e-07
3.24051e-07
1.67123e-07
7.84836e-08
3.30962e-08
1.22422e-08
3.80153e-09
1.32603e-09
6.00332e-10
2.66749e-10
1.16248e-10
4.95615e-11
2.05911e-11
8.2926e-12
3.21467e-12
1.18846e-12
4.13782e-13
1.3332e-13
3.87596e-14
9.78633e-15
2.01832e-15
3.0574e-16
2.77489e-17
9.70208e-19
4.83335e-21
4.33244e-21
8.69662e-19
2.48732e-17
2.74055e-16
1.80916e-15
8.77213e-15
3.47428e-14
1.19504e-13
3.70901e-13
1.0653e-12
2.88153e-12
7.43324e-12
1.84574e-11
4.4426e-11
1.04204e-10
2.39117e-10
5.38168e-10
1.1888e-09
3.4087e-09
1.09824e-08
2.97165e-08
7.05755e-08
1.50639e-07
2.93062e-07
5.24884e-07
8.73386e-07
1.36283e-06
2.01268e-06
2.83705e-06
3.84529e-06
5.04292e-06
6.43303e-06
8.01748e-06
9.79767e-06
1.17751e-05
1.39514e-05
1.63287e-05
1.89091e-05
2.1695e-05
2.46883e-05
2.78907e-05
3.13029e-05
3.49242e-05
3.87523e-05
4.27822e-05
4.70061e-05
5.14118e-05
5.59823e-05
6.06942e-05
6.55165e-05
7.04089e-05
7.53203e-05
8.01865e-05
8.4928e-05
8.94515e-05
9.36453e-05
9.73722e-05
0.000100466
0.000102741
0.000103992
0.000103992
0.000102741
0.000100466
9.73722e-05
9.36453e-05
8.94515e-05
8.4928e-05
8.01865e-05
7.53203e-05
7.04089e-05
6.55165e-05
6.06942e-05
5.59823e-05
5.14118e-05
4.70061e-05
4.27822e-05
3.87523e-05
3.49242e-05
3.13029e-05
2.78907e-05
2.46883e-05
2.16949e-05
1.89091e-05
1.63286e-05
1.39514e-05
1.17751e-05
9.79766e-06
8.01747e-06
6.43302e-06
5.04291e-06
3.84529e-06
2.83704e-06
2.01267e-06
1.36283e-06
8.73385e-07
5.24883e-07
2.93061e-07
1.50638e-07
7.05754e-08
2.97165e-08
1.09824e-08
3.4087e-09
1.1888e-09
5.38168e-10
2.39117e-10
1.04204e-10
4.4426e-11
1.84574e-11
7.43324e-12
2.88153e-12
1.0653e-12
3.70901e-13
1.19504e-13
3.47428e-14
8.77214e-15
1.80916e-15
2.74055e-16
2.48732e-17
8.69663e-19
4.33245e-21
3.89452e-21
7.81756e-19
2.2359e-17
2.46354e-16
1.62629e-15
7.88545e-15
3.1231e-14
1.07425e-13
3.33411e-13
9.57617e-13
2.59027e-12
6.68192e-12
1.65918e-11
3.9936e-11
9.36737e-11
2.14958e-10
4.83812e-10
1.0688e-09
3.06509e-09
9.87967e-09
2.67543e-08
6.36283e-08
1.36104e-07
2.65596e-07
4.77541e-07
7.98142e-07
1.25128e-06
1.85666e-06
2.62913e-06
3.57883e-06
4.71204e-06
6.03237e-06
7.54182e-06
9.2417e-06
1.11331e-05
1.32173e-05
1.54956e-05
1.79696e-05
2.06407e-05
2.35103e-05
2.65789e-05
2.98466e-05
3.33118e-05
3.69714e-05
4.082e-05
4.48492e-05
4.90465e-05
5.33951e-05
5.78722e-05
6.24476e-05
6.70831e-05
7.17299e-05
7.63273e-05
8.08011e-05
8.50607e-05
8.89977e-05
9.24873e-05
9.53824e-05
9.75134e-05
9.86851e-05
9.86851e-05
9.75134e-05
9.53824e-05
9.24873e-05
8.89977e-05
8.50607e-05
8.0801e-05
7.63273e-05
7.17298e-05
6.70831e-05
6.24476e-05
5.78721e-05
5.33951e-05
4.90465e-05
4.48491e-05
4.082e-05
3.69714e-05
3.33118e-05
2.98465e-05
2.65789e-05
2.35103e-05
2.06407e-05
1.79696e-05
1.54956e-05
1.32173e-05
1.11331e-05
9.24169e-06
7.54182e-06
6.03237e-06
4.71204e-06
3.57882e-06
2.62913e-06
1.85666e-06
1.25128e-06
7.9814e-07
4.7754e-07
2.65596e-07
1.36104e-07
6.36282e-08
2.67543e-08
9.87966e-09
3.06509e-09
1.0688e-09
4.83812e-10
2.14958e-10
9.36737e-11
3.9936e-11
1.65918e-11
6.68192e-12
2.59027e-12
9.57617e-13
3.33411e-13
1.07425e-13
3.1231e-14
7.88545e-15
1.62629e-15
2.46353e-16
2.2359e-17
7.81757e-19
3.89453e-21
3.51064e-21
7.047e-19
2.01551e-17
2.22071e-16
1.46599e-15
7.10819e-15
2.81526e-14
9.68359e-14
3.00547e-13
8.63227e-13
2.33496e-12
6.02332e-12
1.49565e-11
3.60001e-11
8.44426e-11
1.93779e-10
4.36159e-10
9.63591e-10
2.76377e-09
8.91201e-09
2.41519e-08
5.75119e-08
1.23265e-07
2.41219e-07
4.3527e-07
7.30509e-07
1.15031e-06
1.71446e-06
2.43838e-06
3.333e-06
4.40539e-06
5.65967e-06
7.09814e-06
8.72207e-06
1.05324e-05
1.25298e-05
1.47154e-05
1.70899e-05
1.96543e-05
2.24089e-05
2.5354e-05
2.84885e-05
3.18105e-05
3.53161e-05
3.89995e-05
4.28517e-05
4.68603e-05
5.10085e-05
5.5274e-05
5.96278e-05
6.4033e-05
6.84432e-05
7.28012e-05
7.70366e-05
8.10646e-05
8.4784e-05
8.80756e-05
9.08005e-05
9.27989e-05
9.38953e-05
9.38953e-05
9.27989e-05
9.08005e-05
8.80756e-05
8.4784e-05