/*--------------------------------*- C++ -*----------------------------------*\
  =========                 |
  \\      /  F ield         | OpenFOAM: The Open Source CFD Toolbox
   \\    /   O peration     | Website:  https://openfoam.org
    \\  /    A nd           | Version:  8
     \\/     M anipulation  |
\*---------------------------------------------------------------------------*/
FoamFile
{
    version     2.0;
    format      ascii;
    class       surfaceScalarField;
    location    "459";
    object      phi;
}
// * * * * * * * * * * * * * * * * * * * * * * * * * * * * * * * * * * * * * //

dimensions      [0 3 -1 0 0 0 0];

internalField   nonuniform List<scalar> 
71580
(
2.12222e-08
1.52257e-10
4.51536e-08
5.43407e-10
7.20788e-08
1.09959e-09
1.02293e-07
1.87591e-09
1.36093e-07
2.94353e-09
1.73773e-07
4.39434e-09
2.15603e-07
6.34642e-09
2.61817e-07
8.95077e-09
3.12583e-07
1.23995e-08
3.67975e-07
1.69359e-08
4.27929e-07
2.28657e-08
4.92189e-07
3.05715e-08
5.60249e-07
4.0527e-08
6.31273e-07
5.33131e-08
7.04014e-07
6.96313e-08
7.76728e-07
9.03079e-08
8.47118e-07
1.1628e-07
9.12242e-07
1.4862e-07
9.96963e-07
3.4153e-07
1.04048e-06
4.08406e-07
1.05294e-06
4.66678e-07
1.04409e-06
5.16858e-07
1.02152e-06
5.61164e-07
9.90348e-07
6.0221e-07
9.53745e-07
6.42033e-07
9.13689e-07
6.81951e-07
8.71471e-07
7.22773e-07
8.27987e-07
7.65029e-07
7.83888e-07
8.09102e-07
7.39669e-07
8.55298e-07
6.95721e-07
9.03878e-07
6.52357e-07
9.55086e-07
6.09838e-07
1.00915e-06
5.68377e-07
1.06632e-06
5.28154e-07
1.1268e-06
4.89322e-07
1.19086e-06
4.52005e-07
1.25873e-06
4.16307e-07
1.33067e-06
3.8231e-07
1.40697e-06
3.50077e-07
1.4879e-06
3.1965e-07
1.57376e-06
2.91052e-07
1.66489e-06
2.64279e-07
1.76162e-06
2.39302e-07
1.86431e-06
2.16057e-07
1.97336e-06
1.94433e-07
2.08919e-06
1.74323e-07
2.21221e-06
1.55622e-07
2.34283e-06
1.38224e-07
2.4815e-06
1.22028e-07
2.62872e-06
1.06927e-07
2.78497e-06
9.28142e-08
2.95081e-06
7.95796e-08
3.12681e-06
6.71059e-08
3.31357e-06
5.52677e-08
3.51176e-06
4.39276e-08
3.72206e-06
3.2931e-08
3.94521e-06
2.20983e-08
4.182e-06
1.12124e-08
4.43328e-06
-1.331e-16
4.69997e-06
-1.12124e-08
4.69997e-06
-2.20983e-08
4.43329e-06
-3.2931e-08
4.18201e-06
-4.39276e-08
3.94521e-06
-5.52677e-08
3.72206e-06
-6.71059e-08
3.51176e-06
-7.95797e-08
3.31357e-06
-9.28142e-08
3.12681e-06
-1.06927e-07
2.95081e-06
-1.22028e-07
2.78497e-06
-1.38225e-07
2.62872e-06
-1.55622e-07
2.4815e-06
-1.74323e-07
2.34283e-06
-1.94433e-07
2.21221e-06
-2.16057e-07
2.08919e-06
-2.39302e-07
1.97336e-06
-2.64279e-07
1.86431e-06
-2.91052e-07
1.76162e-06
-3.1965e-07
1.66489e-06
-3.50077e-07
1.57376e-06
-3.8231e-07
1.4879e-06
-4.16307e-07
1.40697e-06
-4.52006e-07
1.33067e-06
-4.89322e-07
1.25873e-06
-5.28155e-07
1.19086e-06
-5.68377e-07
1.1268e-06
-6.09838e-07
1.06632e-06
-6.52357e-07
1.00915e-06
-6.95721e-07
9.55086e-07
-7.39669e-07
9.03878e-07
-7.83888e-07
8.55297e-07
-8.27987e-07
8.09102e-07
-8.71472e-07
7.65029e-07
-9.13689e-07
7.22772e-07
-9.53745e-07
6.8195e-07
-9.90348e-07
6.42033e-07
-1.02152e-06
6.02209e-07
-1.04409e-06
5.61164e-07
-1.05294e-06
5.16858e-07
-1.04048e-06
4.66678e-07
-9.96963e-07
4.08406e-07
-9.12242e-07
3.4153e-07
-8.47118e-07
1.4862e-07
-7.76728e-07
1.1628e-07
-7.04014e-07
9.0308e-08
-6.31273e-07
6.96312e-08
-5.60249e-07
5.33131e-08
-4.92189e-07
4.0527e-08
-4.27929e-07
3.05715e-08
-3.67975e-07
2.28657e-08
-3.12583e-07
1.69359e-08
-2.61817e-07
1.23995e-08
-2.15603e-07
8.95077e-09
-1.73773e-07
6.34642e-09
-1.36093e-07
4.39434e-09
-1.02293e-07
2.94353e-09
-7.20787e-08
1.87591e-09
-4.51536e-08
1.09959e-09
-2.12222e-08
5.43406e-10
1.52257e-10
6.01272e-11
9.21295e-11
2.71942e-10
3.31592e-10
6.96147e-10
6.75389e-10
1.41242e-09
1.15963e-09
2.52372e-09
1.83223e-09
4.16174e-09
2.75633e-09
6.4932e-09
4.01496e-09
9.72687e-09
5.7171e-09
1.4121e-08
8.00543e-09
1.99904e-08
1.10664e-08
2.77131e-08
1.51431e-08
3.77335e-08
2.05511e-08
5.05612e-08
2.76993e-08
6.67609e-08
3.71134e-08
8.69274e-08
4.94648e-08
1.11636e-07
6.55993e-08
1.41355e-07
8.65601e-08
1.76455e-07
1.13521e-07
2.49385e-07
2.68599e-07
3.18576e-07
3.39215e-07
3.77215e-07
4.08039e-07
4.22867e-07
4.71206e-07
4.56176e-07
5.27855e-07
4.7919e-07
5.79196e-07
4.94131e-07
6.27093e-07
5.02876e-07
6.73205e-07
5.06863e-07
7.18786e-07
5.07153e-07
7.64739e-07
5.04528e-07
8.11727e-07
4.99569e-07
8.60257e-07
4.92707e-07
9.1074e-07
4.84268e-07
9.63524e-07
4.74499e-07
1.01892e-06
4.63587e-07
1.07723e-06
4.51673e-07
1.13872e-06
4.38866e-07
1.20367e-06
4.25247e-07
1.27235e-06
4.10883e-07
1.34504e-06
3.95825e-07
1.42203e-06
3.80119e-07
1.5036e-06
3.63809e-07
1.59008e-06
3.46939e-07
1.68176e-06
3.2956e-07
1.779e-06
3.11735e-07
1.88213e-06
2.93543e-07
1.99155e-06
2.7509e-07
2.10765e-06
2.56456e-07
2.23084e-06
2.37707e-07
2.36158e-06
2.18883e-07
2.50033e-06
2.0001e-07
2.64759e-06
1.81093e-07
2.80389e-06
1.6212e-07
2.96978e-06
1.43062e-07
3.14586e-06
1.23868e-07
3.33277e-06
1.04466e-07
3.53116e-06
8.47612e-08
3.74177e-06
6.46335e-08
3.96534e-06
4.39309e-08
4.20271e-06
2.24659e-08
4.45475e-06
-7.26142e-16
4.72243e-06
-2.24659e-08
4.72244e-06
-4.39309e-08
4.45475e-06
-6.46335e-08
4.20271e-06
-8.47612e-08
3.96534e-06
-1.04466e-07
3.74177e-06
-1.23868e-07
3.53116e-06
-1.43062e-07
3.33277e-06
-1.6212e-07
3.14587e-06
-1.81093e-07
2.96978e-06
-2.0001e-07
2.80389e-06
-2.18883e-07
2.64759e-06
-2.37707e-07
2.50033e-06
-2.56457e-07
2.36158e-06
-2.7509e-07
2.23084e-06
-2.93544e-07
2.10765e-06
-3.11735e-07
1.99155e-06
-3.2956e-07
1.88213e-06
-3.46939e-07
1.779e-06
-3.63809e-07
1.68176e-06
-3.8012e-07
1.59008e-06
-3.95825e-07
1.5036e-06
-4.10883e-07
1.42203e-06
-4.25247e-07
1.34504e-06
-4.38866e-07
1.27235e-06
-4.51673e-07
1.20366e-06
-4.63587e-07
1.13872e-06
-4.745e-07
1.07723e-06
-4.84268e-07
1.01892e-06
-4.92707e-07
9.63524e-07
-4.99569e-07
9.1074e-07
-5.04528e-07
8.60257e-07
-5.07153e-07
8.11726e-07
-5.06863e-07
7.64739e-07
-5.02876e-07
7.18786e-07
-4.94131e-07
6.73205e-07
-4.7919e-07
6.27092e-07
-4.56176e-07
5.79195e-07
-4.22867e-07
5.27854e-07
-3.77215e-07
4.71206e-07
-3.18576e-07
4.08039e-07
-2.49385e-07
3.39215e-07
-1.76455e-07
2.68599e-07
-1.41355e-07
1.13521e-07
-1.11636e-07
8.65601e-08
-8.69274e-08
6.55993e-08
-6.6761e-08
4.94648e-08
-5.05612e-08
3.71134e-08
-3.77335e-08
2.76993e-08
-2.77131e-08
2.05511e-08
-1.99904e-08
1.51431e-08
-1.4121e-08
1.10664e-08
-9.72687e-09
8.00543e-09
-6.4932e-09
5.7171e-09
-4.16174e-09
4.01496e-09
-2.52372e-09
2.75633e-09
-1.41242e-09
1.83223e-09
-6.96146e-10
1.15963e-09
-2.71942e-10
6.75389e-10
-6.01272e-11
3.31592e-10
9.21296e-11
2.19064e-11
7.02232e-11
1.00924e-10
2.52574e-10
2.61646e-10
5.14667e-10
5.36626e-10
8.84652e-10
9.69075e-10
1.39978e-09
1.61604e-09
2.10936e-09
2.55246e-09
3.07854e-09
3.87631e-09
4.39325e-09
5.71511e-09
6.16663e-09
8.23403e-09
8.54749e-09
1.16459e-08
1.17312e-08
1.62232e-08
1.59738e-08
2.23122e-08
2.16103e-08
3.03477e-08
2.90779e-08
4.08678e-08
3.89447e-08
5.45215e-08
5.19456e-08
7.20609e-08
6.90207e-08
9.42003e-08
9.13814e-08
1.41574e-07
2.21225e-07
1.94735e-07
2.86055e-07
2.49635e-07
3.53139e-07
3.0199e-07
4.18851e-07
3.49317e-07
4.80528e-07
3.90859e-07
5.37654e-07
4.26773e-07
5.91179e-07
4.57509e-07
6.42469e-07
4.83533e-07
6.92762e-07
5.05244e-07
7.43028e-07
5.22968e-07
7.94003e-07
5.36973e-07
8.46253e-07
5.47482e-07
9.00231e-07
5.54691e-07
9.56315e-07
5.58778e-07
1.01484e-06
5.5991e-07
1.0761e-06
5.58246e-07
1.14038e-06
5.53944e-07
1.20797e-06
5.4716e-07
1.27913e-06
5.38051e-07
1.35415e-06
5.26771e-07
1.43331e-06
5.13474e-07
1.5169e-06
4.98311e-07
1.60524e-06
4.8143e-07
1.69864e-06
4.62974e-07
1.79745e-06
4.43081e-07
1.90203e-06
4.21885e-07
2.01275e-06
3.99514e-07
2.13002e-06
3.7609e-07
2.25427e-06
3.51725e-07
2.38594e-06
3.2652e-07
2.52553e-06
3.00557e-07
2.67355e-06
2.73903e-07
2.83054e-06
2.46604e-07
2.99708e-06
2.1868e-07
3.17379e-06
1.90126e-07
3.36132e-06
1.60902e-07
3.56039e-06
1.3093e-07
3.77174e-06
1.00083e-07
3.99619e-06
6.81738e-08
4.23462e-06
3.49337e-08
4.48799e-06
-2.34845e-16
4.75737e-06
-3.49338e-08
4.75737e-06
-6.81738e-08
4.48799e-06
-1.00083e-07
4.23462e-06
-1.3093e-07
3.99619e-06
-1.60902e-07
3.77174e-06
-1.90126e-07
3.56039e-06
-2.1868e-07
3.36132e-06
-2.46604e-07
3.17379e-06
-2.73903e-07
2.99708e-06
-3.00557e-07
2.83054e-06
-3.2652e-07
2.67355e-06
-3.51725e-07
2.52553e-06
-3.7609e-07
2.38594e-06
-3.99514e-07
2.25426e-06
-4.21885e-07
2.13002e-06
-4.43081e-07
2.01275e-06
-4.62974e-07
1.90203e-06
-4.8143e-07
1.79745e-06
-4.98311e-07
1.69864e-06
-5.13474e-07
1.60524e-06
-5.26771e-07
1.5169e-06
-5.38051e-07
1.43331e-06
-5.4716e-07
1.35415e-06
-5.53944e-07
1.27913e-06
-5.58246e-07
1.20797e-06
-5.5991e-07
1.14038e-06
-5.58778e-07
1.0761e-06
-5.54691e-07
1.01484e-06
-5.47482e-07
9.56315e-07
-5.36972e-07
9.0023e-07
-5.22968e-07
8.46252e-07
-5.05244e-07
7.94002e-07
-4.83533e-07
7.43027e-07
-4.57509e-07
6.92762e-07
-4.26772e-07
6.42469e-07
-3.90859e-07
5.91178e-07
-3.49317e-07
5.37654e-07
-3.0199e-07
4.80528e-07
-2.49635e-07
4.18851e-07
-1.94735e-07
3.53139e-07
-1.41574e-07
2.86054e-07
-9.42003e-08
2.21225e-07
-7.20609e-08
9.13814e-08
-5.45215e-08
6.90207e-08
-4.08678e-08
5.19456e-08
-3.03477e-08
3.89447e-08
-2.23122e-08
2.90779e-08
-1.62232e-08
2.16103e-08
-1.16459e-08
1.59738e-08
-8.23403e-09
1.17312e-08
-5.71511e-09
8.54749e-09
-3.87631e-09
6.16663e-09
-2.55246e-09
4.39325e-09
-1.61604e-09
3.07854e-09
-9.69075e-10
2.10936e-09
-5.36626e-10
1.39978e-09
-2.61646e-10
8.84652e-10
-1.00924e-10
5.14667e-10
-2.19064e-11
2.52574e-10
7.02232e-11
7.91244e-12
6.23107e-11
3.61453e-11
2.24341e-10
9.3526e-11
4.57286e-10
1.92163e-10
7.86014e-10
3.48418e-10
1.24353e-09
5.84313e-10
1.87347e-09
9.2941e-10
2.73345e-09
1.4233e-09
3.89936e-09
2.11888e-09
5.47105e-09
3.08675e-09
7.57962e-09
4.42096e-09
1.0397e-08
6.24656e-09
1.41482e-08
8.72956e-09
1.91273e-08
1.20896e-08
2.57178e-08
1.6616e-08
3.44184e-08
2.26862e-08
4.58754e-08
3.07859e-08
6.0921e-08
4.15665e-08
8.06007e-08
6.84596e-08
1.94332e-07
1.01787e-07
2.52727e-07
1.39316e-07
3.1561e-07
1.78152e-07
3.80016e-07
2.15698e-07
4.42981e-07
2.50459e-07
5.02894e-07
2.81894e-07
5.59743e-07
3.09973e-07
6.1439e-07
3.34849e-07
6.67886e-07
3.56712e-07
7.21165e-07
3.75737e-07
7.74977e-07
3.92075e-07
8.29915e-07
4.0585e-07
8.86455e-07
4.17171e-07
9.44994e-07
4.26133e-07
1.00588e-06
4.32821e-07
1.06941e-06
4.37316e-07
1.13589e-06
4.39693e-07
1.20559e-06
4.40026e-07
1.2788e-06
4.38382e-07
1.35579e-06
4.34829e-07
1.43686e-06
4.29432e-07
1.5223e-06
4.2225e-07
1.61242e-06
4.13343e-07
1.70755e-06
4.02767e-07
1.80803e-06
3.90576e-07
1.91422e-06
3.76819e-07
2.02651e-06
3.61546e-07
2.14529e-06
3.44801e-07
2.27101e-06
3.26625e-07
2.40412e-06
3.07056e-07
2.5451e-06
2.86123e-07
2.69448e-06
2.63849e-07
2.85282e-06
2.40246e-07
3.02068e-06
2.15315e-07
3.19872e-06
1.89043e-07
3.3876e-06
1.61399e-07
3.58803e-06
1.32332e-07
3.8008e-06
1.01771e-07
4.02675e-06
6.96175e-08
4.26677e-06
3.5747e-08
4.52186e-06
-1.35128e-15
4.79312e-06
-3.5747e-08
4.79312e-06
-6.96175e-08
4.52186e-06
-1.01771e-07
4.26677e-06
-1.32333e-07
4.02675e-06
-1.61399e-07
3.80081e-06
-1.89043e-07
3.58803e-06
-2.15315e-07
3.3876e-06
-2.40246e-07
3.19872e-06
-2.63849e-07
3.02068e-06
-2.86123e-07
2.85282e-06
-3.07056e-07
2.69449e-06
-3.26625e-07
2.5451e-06
-3.44801e-07
2.40412e-06
-3.61546e-07
2.27101e-06
-3.76819e-07
2.14529e-06
-3.90576e-07
2.02651e-06
-4.02768e-07
1.91422e-06
-4.13343e-07
1.80803e-06
-4.2225e-07
1.70755e-06
-4.29432e-07
1.61242e-06
-4.34829e-07
1.5223e-06
-4.38382e-07
1.43686e-06
-4.40025e-07
1.35579e-06
-4.39693e-07
1.2788e-06
-4.37316e-07
1.20559e-06
-4.32821e-07
1.13589e-06
-4.26133e-07
1.06941e-06
-4.17171e-07
1.00587e-06
-4.0585e-07
9.44994e-07
-3.92075e-07
8.86455e-07
-3.75737e-07
8.29914e-07
-3.56712e-07
7.74977e-07
-3.34849e-07
7.21165e-07
-3.09973e-07
6.67886e-07
-2.81894e-07
6.1439e-07
-2.50458e-07
5.59743e-07
-2.15698e-07
5.02894e-07
-1.78151e-07
4.42981e-07
-1.39316e-07
3.80016e-07
-1.01787e-07
3.1561e-07
-6.84595e-08
2.52727e-07
-4.15665e-08
1.94332e-07
-3.07859e-08
8.06007e-08
-2.26862e-08
6.0921e-08
-1.6616e-08
4.58754e-08
-1.20896e-08
3.44184e-08
-8.72956e-09
2.57178e-08
-6.24656e-09
1.91273e-08
-4.42096e-09
1.41482e-08
-3.08675e-09
1.0397e-08
-2.11888e-09
7.57962e-09
-1.4233e-09
5.47104e-09
-9.2941e-10
3.89936e-09
-5.84313e-10
2.73344e-09
-3.48418e-10
1.87347e-09
-1.92163e-10
1.24353e-09
-9.3526e-11
7.86015e-10
-3.61453e-11
4.57286e-10
-7.91245e-12
2.24341e-10
6.23108e-11
6.86819e-12
5.54425e-11
3.16727e-11
1.99537e-10
8.223e-11
4.06729e-10
1.68972e-10
6.99272e-10
3.0583e-10
1.10667e-09
5.11307e-10
1.66799e-09
8.09871e-10
2.43488e-09
1.23372e-09
3.47551e-09
1.82506e-09
4.87971e-09
2.63896e-09
6.76572e-09
3.74697e-09
9.28897e-09
5.24164e-09
1.26535e-08
7.24213e-09
1.71268e-08
9.90093e-09
2.3059e-08
1.3412e-08
3.09073e-08
1.80201e-08
4.12673e-08
2.40301e-08
5.49111e-08
3.17912e-08
7.28396e-08
4.93491e-08
1.76774e-07
7.08681e-08
2.31208e-07
9.57699e-08
2.90708e-07
1.22684e-07
3.53101e-07
1.50054e-07
4.15611e-07
1.76718e-07
4.7623e-07
2.02072e-07
5.34389e-07
2.25895e-07
5.90567e-07
2.48143e-07
6.45639e-07
2.68826e-07
7.00481e-07
2.87964e-07
7.55839e-07
3.05563e-07
8.12316e-07
3.21618e-07
8.704e-07
3.36111e-07
9.30501e-07
3.49016e-07
9.9297e-07
3.60298e-07
1.05813e-06
3.69919e-07
1.12627e-06
3.77838e-07
1.19767e-06
3.84016e-07
1.27262e-06
3.88413e-07
1.35139e-06
3.90992e-07
1.43428e-06
3.91717e-07
1.52157e-06
3.90557e-07
1.61358e-06
3.87487e-07
1.71062e-06
3.82484e-07
1.81303e-06
3.75532e-07
1.92117e-06
3.6662e-07
2.03542e-06
3.55744e-07
2.15617e-06
3.42903e-07
2.28385e-06
3.28103e-07
2.41892e-06
3.11355e-07
2.56185e-06
2.92671e-07
2.71317e-06
2.72068e-07
2.87342e-06
2.4956e-07
3.04319e-06
2.25159e-07
3.22312e-06
1.98871e-07
3.41388e-06
1.70691e-07
3.61621e-06
1.40601e-07
3.83089e-06
1.08565e-07
4.05878e-06
7.45191e-08
4.30082e-06
3.83716e-08
4.55801e-06
-2.57962e-16
4.83149e-06
-3.83716e-08
4.83149e-06
-7.45192e-08
4.55801e-06
-1.08565e-07
4.30082e-06
-1.40601e-07
4.05879e-06
-1.70691e-07
3.83089e-06
-1.98871e-07
3.61621e-06
-2.25159e-07
3.41388e-06
-2.4956e-07
3.22312e-06
-2.72068e-07
3.04319e-06
-2.92671e-07
2.87342e-06
-3.11355e-07
2.71317e-06
-3.28103e-07
2.56185e-06
-3.42903e-07
2.41892e-06
-3.55744e-07
2.28385e-06
-3.6662e-07
2.15617e-06
-3.75532e-07
2.03542e-06
-3.82484e-07
1.92117e-06
-3.87487e-07
1.81303e-06
-3.90557e-07
1.71062e-06
-3.91717e-07
1.61358e-06
-3.90992e-07
1.52157e-06
-3.88413e-07
1.43428e-06
-3.84016e-07
1.35139e-06
-3.77838e-07
1.27262e-06
-3.69919e-07
1.19767e-06
-3.60298e-07
1.12627e-06
-3.49016e-07
1.05813e-06
-3.36111e-07
9.9297e-07
-3.21618e-07
9.305e-07
-3.05563e-07
8.704e-07
-2.87964e-07
8.12315e-07
-2.68826e-07
7.55839e-07
-2.48143e-07
7.00481e-07
-2.25895e-07
6.45638e-07
-2.02072e-07
5.90566e-07
-1.76718e-07
5.34389e-07
-1.50054e-07
4.7623e-07
-1.22684e-07
4.15611e-07
-9.57699e-08
3.53101e-07
-7.0868e-08
2.90708e-07
-4.9349e-08
2.31208e-07
-3.17912e-08
1.76774e-07
-2.40301e-08
7.28396e-08
-1.80201e-08
5.49111e-08
-1.3412e-08
4.12673e-08
-9.90093e-09
3.09073e-08
-7.24213e-09
2.3059e-08
-5.24165e-09
1.71268e-08
-3.74697e-09
1.26535e-08
-2.63896e-09
9.28897e-09
-1.82506e-09
6.76572e-09
-1.23372e-09
4.87971e-09
-8.09871e-10
3.47551e-09
-5.11307e-10
2.43488e-09
-3.0583e-10
1.66799e-09
-1.68972e-10
1.10667e-09
-8.223e-11
6.99272e-10
-3.16727e-11
4.06729e-10
-6.86819e-12
1.99537e-10
5.54426e-11
3.69204e-12
5.17505e-11
1.69079e-11
1.86321e-10
4.37905e-11
3.79847e-10
8.99848e-11
6.53078e-10
1.63097e-10
1.03356e-09
2.73336e-10
1.55775e-09
4.3436e-10
2.27386e-09
6.64386e-10
3.24548e-09
9.87659e-10
4.55643e-09
1.43637e-09
6.31701e-09
2.05319e-09
8.67215e-09
2.89455e-09
1.18122e-08
4.0349e-09
1.59865e-08
5.57229e-09
2.15216e-08
7.63532e-09
2.88443e-08
1.03918e-08
3.85108e-08
1.40593e-08
5.12436e-08
1.8928e-08
6.79709e-08
3.0949e-08
1.64753e-07
4.62574e-08
2.159e-07
6.4449e-08
2.72516e-07
8.46621e-08
3.32888e-07
1.05723e-07
3.94551e-07
1.26616e-07
4.55337e-07
1.4675e-07
5.14255e-07
1.65884e-07
5.71433e-07
1.83963e-07
6.2756e-07
2.00999e-07
6.83446e-07
2.1701e-07
7.39828e-07
2.32006e-07
7.97319e-07
2.45981e-07
8.56426e-07
2.58912e-07
9.17569e-07
2.70767e-07
9.81116e-07
2.81501e-07
1.04739e-06
2.91067e-07
1.1167e-06
2.99409e-07
1.18933e-06
3.06469e-07
1.26556e-06
3.12188e-07
1.34567e-06
3.16506e-07
1.42996e-06
3.19366e-07
1.51871e-06
3.20709e-07
1.61224e-06
3.2048e-07
1.71085e-06
3.18626e-07
1.81489e-06
3.15097e-07
1.9247e-06
3.09845e-07
2.04067e-06
3.02825e-07
2.16319e-06
2.93996e-07
2.29268e-06
2.8332e-07
2.42959e-06
2.70759e-07
2.57441e-06
2.5628e-07
2.72765e-06
2.39853e-07
2.88985e-06
2.21447e-07
3.0616e-06
2.01035e-07
3.24353e-06
1.78589e-07
3.43633e-06
1.54085e-07
3.64072e-06
1.27497e-07
3.85748e-06
9.88043e-08
4.08748e-06
6.79902e-08
4.33163e-06
3.50509e-08
4.59095e-06
-1.00601e-15
4.86654e-06
-3.5051e-08
4.86654e-06
-6.79902e-08
4.59095e-06
-9.88043e-08
4.33163e-06
-1.27497e-07
4.08748e-06
-1.54085e-07
3.85748e-06
-1.7859e-07
3.64072e-06
-2.01035e-07
3.43633e-06
-2.21447e-07
3.24353e-06
-2.39853e-07
3.0616e-06
-2.5628e-07
2.88985e-06
-2.70759e-07
2.72765e-06
-2.8332e-07
2.57441e-06
-2.93996e-07
2.42959e-06
-3.02825e-07
2.29268e-06
-3.09845e-07
2.16319e-06
-3.15097e-07
2.04067e-06
-3.18626e-07
1.9247e-06
-3.2048e-07
1.81488e-06
-3.20709e-07
1.71085e-06
-3.19366e-07
1.61224e-06
-3.16506e-07
1.51871e-06
-3.12188e-07
1.42996e-06
-3.06469e-07
1.34567e-06
-2.99409e-07
1.26556e-06
-2.91067e-07
1.18933e-06
-2.81501e-07
1.1167e-06
-2.70767e-07
1.04739e-06
-2.58912e-07
9.81116e-07
-2.45981e-07
9.17569e-07
-2.32006e-07
8.56425e-07
-2.1701e-07
7.97319e-07
-2.00999e-07
7.39828e-07
-1.83963e-07
6.83446e-07
-1.65884e-07
6.27559e-07
-1.4675e-07
5.71433e-07
-1.26616e-07
5.14255e-07
-1.05722e-07
4.55336e-07
-8.4662e-08
3.94551e-07
-6.4449e-08
3.32888e-07
-4.62573e-08
2.72516e-07
-3.0949e-08
2.159e-07
-1.8928e-08
1.64753e-07
-1.40593e-08
6.79709e-08
-1.03918e-08
5.12436e-08
-7.63532e-09
3.85108e-08
-5.57229e-09
2.88443e-08
-4.0349e-09
2.15216e-08
-2.89455e-09
1.59865e-08
-2.05319e-09
1.18122e-08
-1.43637e-09
8.67215e-09
-9.87659e-10
6.31701e-09
-6.64386e-10
4.55643e-09
-4.3436e-10
3.24548e-09
-2.73337e-10
2.27386e-09
-1.63097e-10
1.55775e-09
-8.99848e-11
1.03356e-09
-4.37905e-11
6.53078e-10
-1.69079e-11
3.79846e-10
-3.69204e-12
1.86321e-10
5.17505e-11
3.25615e-12
4.84943e-11
1.5003e-11
1.74574e-10
3.89512e-11
3.55898e-10
8.00802e-11
6.11949e-10
1.45062e-10
9.68576e-10
2.42795e-10
1.46002e-09
3.85097e-10
2.13156e-09
5.87603e-10
3.04298e-09
8.70928e-10
4.27311e-09
1.26216e-09
5.92577e-09
1.79679e-09
8.13753e-09
2.52112e-09
1.10878e-08
3.49545e-09
1.50121e-08
4.79789e-09
2.02192e-08
6.52928e-09
2.71129e-08
8.81908e-09
3.6221e-08
1.18322e-08
4.82305e-08
1.57693e-08
6.40338e-08
2.49499e-08
1.55573e-07
3.65202e-08
2.0433e-07
5.03625e-08
2.58674e-07
6.59486e-08
3.17302e-07
8.24646e-08
3.78035e-07
9.91199e-08
4.38681e-07
1.15396e-07
4.97979e-07
1.31059e-07
5.5577e-07
1.46043e-07
6.12575e-07
1.60354e-07
6.69135e-07
1.74011e-07
7.26172e-07
1.8702e-07
7.8431e-07
1.99376e-07
8.4407e-07
2.11053e-07
9.05892e-07
2.22015e-07
9.70154e-07
2.32214e-07
1.03719e-06
2.41594e-07
1.10732e-06
2.5009e-07
1.18083e-06
2.57636e-07
1.25801e-06
2.64155e-07
1.33915e-06
2.69573e-07
1.42454e-06
2.73809e-07
1.51448e-06
2.76781e-07
1.60926e-06
2.7841e-07
1.70922e-06
2.78613e-07
1.81468e-06
2.77311e-07
1.926e-06
2.74425e-07
2.04356e-06
2.6988e-07
2.16773e-06
2.63601e-07
2.29896e-06
2.55521e-07
2.43768e-06
2.45573e-07
2.58436e-06
2.33698e-07
2.73952e-06
2.19839e-07
2.9037e-06
2.03948e-07
3.07749e-06
1.8598e-07
3.2615e-06
1.65897e-07
3.45641e-06
1.43671e-07
3.66294e-06
1.19277e-07
3.88188e-06
9.27035e-08
4.11405e-06
6.39499e-08
4.36038e-06
3.3033e-08
4.62186e-06
-2.14261e-16
4.89957e-06
-3.30331e-08
4.89957e-06
-6.39499e-08
4.62186e-06
-9.27035e-08
4.36038e-06
-1.19277e-07
4.11405e-06
-1.43671e-07
3.88188e-06
-1.65897e-07
3.66294e-06
-1.8598e-07
3.45641e-06
-2.03948e-07
3.2615e-06
-2.19839e-07
3.07749e-06
-2.33698e-07
2.9037e-06
-2.45573e-07
2.73952e-06
-2.55521e-07
2.58436e-06
-2.63601e-07
2.43768e-06
-2.6988e-07
2.29896e-06
-2.74425e-07
2.16773e-06
-2.77311e-07
2.04356e-06
-2.78613e-07
1.926e-06
-2.7841e-07
1.81468e-06
-2.76781e-07
1.70922e-06
-2.73809e-07
1.60926e-06
-2.69573e-07
1.51448e-06
-2.64155e-07
1.42454e-06
-2.57636e-07
1.33915e-06
-2.5009e-07
1.25801e-06
-2.41594e-07
1.18083e-06
-2.32214e-07
1.10732e-06
-2.22015e-07
1.03719e-06
-2.11053e-07
9.70154e-07
-1.99376e-07
9.05892e-07
-1.8702e-07
8.4407e-07
-1.74011e-07
7.84309e-07
-1.60354e-07
7.26171e-07
-1.46043e-07
6.69135e-07
-1.31059e-07
6.12575e-07
-1.15396e-07
5.5577e-07
-9.91198e-08
4.97978e-07
-8.24646e-08
4.38681e-07
-6.59486e-08
3.78035e-07
-5.03625e-08
3.17302e-07
-3.65202e-08
2.58674e-07
-2.49499e-08
2.04329e-07
-1.57693e-08
1.55573e-07
-1.18322e-08
6.40338e-08
-8.81908e-09
4.82305e-08
-6.52928e-09
3.6221e-08
-4.79789e-09
2.71129e-08
-3.49545e-09
2.02192e-08
-2.52112e-09
1.50121e-08
-1.79679e-09
1.10878e-08
-1.26216e-09
8.13753e-09
-8.70928e-10
5.92577e-09
-5.87603e-10
4.27311e-09
-3.85097e-10
3.04298e-09
-2.42795e-10
2.13156e-09
-1.45062e-10
1.46002e-09
-8.00802e-11
9.68576e-10
-3.89512e-11
6.11949e-10
-1.5003e-11
3.55898e-10
-3.25616e-12
1.74574e-10
4.84944e-11
2.21043e-12
4.62839e-11
1.01458e-11
1.66639e-10
2.63056e-11
3.39739e-10
5.40823e-11
5.84172e-10
9.80443e-11
9.24614e-10
1.64318e-10
1.39374e-09
2.61094e-10
2.03478e-09
3.99287e-10
2.90478e-09
5.93408e-10
4.07899e-09
8.62712e-10
5.65647e-09
1.23269e-09
7.76755e-09
1.73703e-09
1.05835e-08
2.42017e-09
1.4329e-08
3.34061e-09
1.92987e-08
4.57518e-09
2.58783e-08
6.22438e-09
3.45718e-08
8.41903e-09
4.60358e-08
1.13315e-08
6.11214e-08
1.84559e-08
1.48448e-07
2.76343e-08
1.95151e-07
3.87866e-08
2.47522e-07
5.15465e-08
3.04542e-07
6.52572e-08
3.64324e-07
7.92053e-08
4.24733e-07
9.28757e-08
4.84308e-07
1.06014e-07
5.42632e-07
1.18548e-07
6.00041e-07
1.30487e-07
6.57196e-07
1.41865e-07
7.14794e-07
1.52709e-07
7.73466e-07
1.63033e-07
8.33746e-07
1.72835e-07
8.9609e-07
1.82096e-07
9.60892e-07
1.90787e-07
1.0285e-06
1.98866e-07
1.09924e-06
2.06283e-07
1.17341e-06
2.12981e-07
1.25132e-06
2.18897e-07
1.33324e-06
2.23963e-07
1.41948e-06
2.28108e-07
1.51033e-06
2.31255e-07
1.60612e-06
2.33327e-07
1.70715e-06
2.34241e-07
1.81377e-06
2.33917e-07
1.92633e-06
2.32271e-07
2.0452e-06
2.2922e-07
2.17078e-06
2.24684e-07
2.30349e-06
2.1858e-07
2.44378e-06
2.1083e-07
2.59211e-06
2.01358e-07
2.74899e-06
1.90091e-07
2.91497e-06
1.76961e-07
3.09062e-06
1.61908e-07
3.27655e-06
1.44877e-07
3.47344e-06
1.25824e-07
3.682e-06
1.04721e-07
3.90298e-06
8.15545e-08
4.13722e-06
5.63383e-08
4.3856e-06
2.91209e-08
4.64908e-06
-5.15831e-16
4.92869e-06
-2.91209e-08
4.92869e-06
-5.63383e-08
4.64908e-06
-8.15545e-08
4.3856e-06
-1.04721e-07
4.13722e-06
-1.25824e-07
3.90298e-06
-1.44877e-07
3.682e-06
-1.61908e-07
3.47344e-06
-1.76961e-07
3.27655e-06
-1.90091e-07
3.09062e-06
-2.01358e-07
2.91497e-06
-2.1083e-07
2.74899e-06
-2.1858e-07
2.59211e-06
-2.24684e-07
2.44378e-06
-2.2922e-07
2.30349e-06
-2.32271e-07
2.17078e-06
-2.33917e-07
2.0452e-06
-2.34241e-07
1.92633e-06
-2.33327e-07
1.81377e-06
-2.31255e-07
1.70715e-06
-2.28108e-07
1.60612e-06
-2.23963e-07
1.51033e-06
-2.18897e-07
1.41948e-06
-2.12981e-07
1.33324e-06
-2.06283e-07
1.25132e-06
-1.98866e-07
1.17341e-06
-1.90787e-07
1.09924e-06
-1.82096e-07
1.0285e-06
-1.72834e-07
9.60892e-07
-1.63033e-07
8.9609e-07
-1.52709e-07
8.33746e-07
-1.41865e-07
7.73465e-07
-1.30487e-07
7.14794e-07
-1.18548e-07
6.57195e-07
-1.06014e-07
6.00041e-07
-9.28756e-08
5.42631e-07
-7.92052e-08
4.84308e-07
-6.52571e-08
4.24733e-07
-5.15465e-08
3.64324e-07
-3.87866e-08
3.04542e-07
-2.76343e-08
2.47521e-07
-1.84559e-08
1.95151e-07
-1.13315e-08
1.48448e-07
-8.41903e-09
6.11214e-08
-6.22438e-09
4.60358e-08
-4.57518e-09
3.45718e-08
-3.34061e-09
2.58783e-08
-2.42017e-09
1.92987e-08
-1.73703e-09
1.4329e-08
-1.23269e-09
1.05835e-08
-8.62712e-10
7.76755e-09
-5.93408e-10
5.65647e-09
-3.99287e-10
4.07899e-09
-2.61094e-10
2.90479e-09
-1.64318e-10
2.03478e-09
-9.80443e-11
1.39375e-09
-5.40823e-11
9.24614e-10
-2.63056e-11
5.84172e-10
-1.01458e-11
3.39738e-10
-2.21043e-12
1.66639e-10
4.62839e-11
1.98033e-12
4.43036e-11
9.11648e-12
1.59502e-10
2.36643e-11
3.25191e-10
4.86629e-11
5.59174e-10
8.81939e-11
8.85083e-10
1.47714e-10
1.33422e-09
2.34491e-10
1.948e-09
3.58173e-10
2.7811e-09
5.3153e-10
3.90563e-09
7.71414e-10
5.41658e-09
1.10001e-09
7.43895e-09
1.54647e-09
1.0137e-08
2.14894e-09
1.37265e-08
2.9573e-09
1.84903e-08
4.0365e-09
2.47991e-08
5.47084e-09
3.31374e-08
7.36912e-09
4.41376e-08
9.86865e-09
5.86218e-08
1.5816e-08
1.42501e-07
2.34379e-08
1.87529e-07
3.27298e-08
2.3823e-07
4.34379e-08
2.93834e-07
5.50534e-08
3.52709e-07
6.69702e-08
4.12816e-07
7.87075e-08
4.72571e-07
9.00047e-08
5.31335e-07
1.00775e-07
5.89271e-07
1.11021e-07
6.4695e-07
1.20778e-07
7.05038e-07
1.30079e-07
7.64164e-07
1.38949e-07
8.24876e-07
1.47395e-07
8.87645e-07
1.55411e-07
9.52876e-07
1.62979e-07
1.02093e-06
1.70068e-07
1.09215e-06
1.76639e-07
1.16684e-06
1.82644e-07
1.24531e-06
1.88027e-07
1.32786e-06
1.92727e-07
1.41478e-06
1.96678e-07
1.50638e-06
1.99808e-07
1.60299e-06
2.02043e-07
1.70491e-06
2.03303e-07
1.81251e-06
2.03507e-07
1.92612e-06
2.02572e-07
2.04614e-06
2.00412e-07
2.17294e-06
1.96942e-07
2.30697e-06
1.92076e-07
2.44864e-06
1.85731e-07
2.59846e-06
1.77823e-07
2.7569e-06
1.68276e-07
2.92452e-06
1.57016e-07
3.10188e-06
1.43976e-07
3.28959e-06
1.29097e-07
3.48832e-06
1.12334e-07
3.69876e-06
9.36547e-08
3.92166e-06
7.30473e-08
4.15783e-06
5.05267e-08
4.40812e-06
2.61437e-08
4.67346e-06
-1.35117e-16
4.95484e-06
-2.61437e-08
4.95484e-06
-5.05267e-08
4.67347e-06
-7.30473e-08
4.40812e-06
-9.36548e-08
4.15783e-06
-1.12334e-07
3.92166e-06
-1.29097e-07
3.69876e-06
-1.43976e-07
3.48832e-06
-1.57016e-07
3.28959e-06
-1.68277e-07
3.10188e-06
-1.77823e-07
2.92452e-06
-1.85731e-07
2.7569e-06
-1.92076e-07
2.59846e-06
-1.96942e-07
2.44864e-06
-2.00412e-07
2.30697e-06
-2.02572e-07
2.17294e-06
-2.03507e-07
2.04614e-06
-2.03303e-07
1.92612e-06
-2.02043e-07
1.81251e-06
-1.99808e-07
1.70491e-06
-1.96678e-07
1.60299e-06
-1.92727e-07
1.50638e-06
-1.88027e-07
1.41478e-06
-1.82644e-07
1.32786e-06
-1.76639e-07
1.24531e-06
-1.70068e-07
1.16684e-06
-1.62979e-07
1.09215e-06
-1.55411e-07
1.02093e-06
-1.47395e-07
9.52876e-07
-1.38949e-07
8.87644e-07
-1.30079e-07
8.24876e-07
-1.20778e-07
7.64164e-07
-1.11021e-07
7.05037e-07
-1.00775e-07
6.46949e-07
-9.00046e-08
5.89271e-07
-7.87075e-08
5.31334e-07
-6.69702e-08
4.72571e-07
-5.50534e-08
4.12816e-07
-4.34378e-08
3.52708e-07
-3.27297e-08
2.93834e-07
-2.34379e-08
2.3823e-07
-1.5816e-08
1.87529e-07
-9.86865e-09
1.42501e-07
-7.36912e-09
5.86218e-08
-5.47084e-09
4.41376e-08
-4.0365e-09
3.31374e-08
-2.9573e-09
2.47991e-08
-2.14894e-09
1.84903e-08
-1.54647e-09
1.37265e-08
-1.10001e-09
1.0137e-08
-7.71414e-10
7.43895e-09
-5.3153e-10
5.41658e-09
-3.58173e-10
3.90563e-09
-2.34491e-10
2.7811e-09
-1.47714e-10
1.948e-09
-8.81939e-11
1.33423e-09
-4.86629e-11
8.85083e-10
-2.36642e-11
5.59174e-10
-9.11648e-12
3.25191e-10
-1.98034e-12
1.59502e-10
4.43036e-11
1.55712e-12
4.27464e-11
7.15648e-12
1.53903e-10
1.85666e-11
3.13781e-10
3.81827e-11
5.39558e-10
6.92289e-11
8.54037e-10
1.16028e-10
1.28743e-09
1.84354e-10
1.87968e-09
2.81901e-10
2.68355e-09
4.18892e-10
3.76864e-09
6.08882e-10
5.22659e-09
8.69807e-10
7.17803e-09
1.22536e-09
9.78147e-09
1.70678e-09
1.32451e-08
2.35519e-09
1.78419e-08
3.22459e-09
2.39297e-08
4.3857e-09
3.19763e-08
5.93075e-09
4.25925e-08
7.98023e-09
5.65724e-08
1.29643e-08
1.37517e-07
1.94245e-08
1.81069e-07
2.73737e-08
2.30281e-07
3.66333e-08
2.84575e-07
4.67859e-08
3.42556e-07
5.72855e-08
4.02317e-07
6.76591e-08
4.62198e-07
7.76251e-08
5.21369e-07
8.70764e-08
5.7982e-07
9.60074e-08
6.38019e-07
1.04453e-07
6.96592e-07
1.12455e-07
7.56162e-07
1.20047e-07
8.17285e-07
1.27249e-07
8.80443e-07
1.34067e-07
9.46058e-07
1.40496e-07
1.01451e-06
1.46518e-07
1.08613e-06
1.52108e-07
1.16125e-06
1.57229e-07
1.24019e-06
1.6184e-07
1.32325e-06
1.65889e-07
1.41073e-06
1.69323e-07
1.50295e-06
1.7208e-07
1.60023e-06
1.74095e-07
1.7029e-06
1.75299e-07
1.8113e-06
1.75619e-07
1.9258e-06
1.74979e-07
2.04678e-06
1.73299e-07
2.17462e-06
1.70501e-07
2.30976e-06
1.66501e-07
2.45264e-06
1.61219e-07
2.60374e-06
1.54573e-07
2.76355e-06
1.46485e-07
2.93261e-06
1.36882e-07
3.11148e-06
1.25693e-07
3.30078e-06
1.12859e-07
3.50116e-06
9.83298e-08
3.71329e-06
8.20719e-08
3.93792e-06
6.40727e-08
4.17582e-06
4.43484e-08
4.42784e-06
2.29544e-08
4.69486e-06
-2.09996e-16
4.97779e-06
-2.29544e-08
4.97779e-06
-4.43484e-08
4.69486e-06
-6.40728e-08
4.42785e-06
-8.20719e-08
4.17583e-06
-9.83298e-08
3.93792e-06
-1.12859e-07
3.71329e-06
-1.25693e-07
3.50116e-06
-1.36882e-07
3.30078e-06
-1.46486e-07
3.11148e-06
-1.54573e-07
2.93261e-06
-1.61219e-07
2.76355e-06
-1.66501e-07
2.60374e-06
-1.70501e-07
2.45264e-06
-1.73299e-07
2.30976e-06
-1.74979e-07
2.17462e-06
-1.75619e-07
2.04678e-06
-1.75299e-07
1.9258e-06
-1.74095e-07
1.8113e-06
-1.7208e-07
1.7029e-06
-1.69323e-07
1.60023e-06
-1.65889e-07
1.50295e-06
-1.6184e-07
1.41073e-06
-1.57229e-07
1.32325e-06
-1.52108e-07
1.24019e-06
-1.46518e-07
1.16125e-06
-1.40496e-07
1.08613e-06
-1.34067e-07
1.01451e-06
-1.27249e-07
9.46058e-07
-1.20047e-07
8.80442e-07
-1.12455e-07
8.17284e-07
-1.04453e-07
7.56161e-07
-9.60073e-08
6.96591e-07
-8.70763e-08
6.38018e-07
-7.76251e-08
5.7982e-07
-6.7659e-08
5.21368e-07
-5.72855e-08
4.62197e-07
-4.67859e-08
4.02316e-07
-3.66332e-08
3.42556e-07
-2.73737e-08
2.84574e-07
-1.94245e-08
2.3028e-07
-1.29643e-08
1.81069e-07
-7.98023e-09
1.37517e-07
-5.93075e-09
5.65724e-08
-4.3857e-09
4.25925e-08
-3.22459e-09
3.19763e-08
-2.35519e-09
2.39297e-08
-1.70678e-09
1.78419e-08
-1.22536e-09
1.32451e-08
-8.69807e-10
9.78148e-09
-6.08882e-10
7.17803e-09
-4.18892e-10
5.22659e-09
-2.81901e-10
3.76864e-09
-1.84354e-10
2.68356e-09
-1.16028e-10
1.87968e-09
-6.92289e-11
1.28743e-09
-3.81827e-11
8.54037e-10
-1.85666e-11
5.39558e-10
-7.15648e-12
3.1378e-10
-1.55712e-12
1.53903e-10
4.27465e-11
1.40303e-12
4.13434e-11
6.45582e-12
1.4885e-10
1.67565e-11
3.0348e-10
3.4463e-11
5.21851e-10
6.2477e-11
8.26022e-10
1.04684e-10
1.24522e-09
1.66266e-10
1.8181e-09
2.54118e-10
2.5957e-09
3.77383e-10
3.64538e-09
5.48159e-10
5.05582e-09
7.82421e-10
6.94377e-09
1.10121e-09