/*--------------------------------*- C++ -*----------------------------------*\
  =========                 |
  \\      /  F ield         | OpenFOAM: The Open Source CFD Toolbox
   \\    /   O peration     | Website:  https://openfoam.org
    \\  /    A nd           | Version:  8
     \\/     M anipulation  |
\*---------------------------------------------------------------------------*/
FoamFile
{
    version     2.0;
    format      ascii;
    class       volVectorField;
    location    "459";
    object      U;
}
// * * * * * * * * * * * * * * * * * * * * * * * * * * * * * * * * * * * * * //

dimensions      [0 1 -1 0 0 0 0];

internalField   nonuniform List<vector> 
36000
(
(0 0.000263144 0.00343682)
(0 0.000831197 0.0106956)
(0 0.00146878 0.0188616)
(0 0.00218391 0.028026)
(0 0.0029851 0.0382827)
(0 0.00388007 0.0497264)
(0 0.00487586 0.0624501)
(0 0.00597883 0.0765415)
(0 0.00719412 0.0920792)
(0 0.00852492 0.109127)
(0 0.00997148 0.127727)
(0 0.01153 0.147892)
(0 0.0131912 0.169594)
(0 0.0149384 0.192752)
(0 0.0167458 0.217207)
(0 0.0185766 0.242696)
(0 0.0203796 0.268796)
(0 0.022088 0.294859)
(0 0.0242025 0.329675)
(0 0.0257472 0.36099)
(0 0.0263477 0.380003)
(0 0.0263067 0.390189)
(0 0.025862 0.395077)
(0 0.0251695 0.397158)
(0 0.0243142 0.397884)
(0 0.0233467 0.397974)
(0 0.0223096 0.397745)
(0 0.0212324 0.39734)
(0 0.0201337 0.396829)
(0 0.0190272 0.396251)
(0 0.0179232 0.395628)
(0 0.0168304 0.394976)
(0 0.0157559 0.394305)
(0 0.0147054 0.393624)
(0 0.0136839 0.39294)
(0 0.0126954 0.392259)
(0 0.0117434 0.391586)
(0 0.0108308 0.390928)
(0 0.00995985 0.39029)
(0 0.00913233 0.389677)
(0 0.00834958 0.389095)
(0 0.00761246 0.388549)
(0 0.00692113 0.388046)
(0 0.00627471 0.387591)
(0 0.00567137 0.387193)
(0 0.00511349 0.386857)
(0 0.00459344 0.386573)
(0 0.00410936 0.386331)
(0 0.00365915 0.386125)
(0 0.00324027 0.385949)
(0 0.00285009 0.385799)
(0 0.00248594 0.385671)
(0 0.00214512 0.385563)
(0 0.00182478 0.385473)
(0 0.00152192 0.385398)
(0 0.00123325 0.385336)
(0 0.00095517 0.385288)
(0 0.000683523 0.385251)
(0 0.000413445 0.385226)
(0 0.000139036 0.385213)
(0 -0.000139036 0.385213)
(0 -0.000413445 0.385226)
(0 -0.000683523 0.385251)
(0 -0.00095517 0.385288)
(0 -0.00123326 0.385336)
(0 -0.00152192 0.385398)
(0 -0.00182478 0.385473)
(0 -0.00214512 0.385563)
(0 -0.00248594 0.385671)
(0 -0.00285009 0.385799)
(0 -0.00324028 0.385949)
(0 -0.00365915 0.386125)
(0 -0.00410936 0.386331)
(0 -0.00459344 0.386573)
(0 -0.00511349 0.386857)
(0 -0.00567138 0.387193)
(0 -0.00627471 0.387591)
(0 -0.00692114 0.388046)
(0 -0.00761246 0.388549)
(0 -0.00834959 0.389095)
(0 -0.00913233 0.389677)
(0 -0.00995985 0.39029)
(0 -0.0108308 0.390928)
(0 -0.0117435 0.391586)
(0 -0.0126954 0.392259)
(0 -0.0136839 0.39294)
(0 -0.0147054 0.393624)
(0 -0.0157559 0.394305)
(0 -0.0168304 0.394976)
(0 -0.0179232 0.395628)
(0 -0.0190272 0.396251)
(0 -0.0201338 0.396829)
(0 -0.0212324 0.39734)
(0 -0.0223096 0.397745)
(0 -0.0233467 0.397974)
(0 -0.0243142 0.397884)
(0 -0.0251695 0.397158)
(0 -0.025862 0.395077)
(0 -0.0263067 0.390188)
(0 -0.0263477 0.380003)
(0 -0.0257472 0.36099)
(0 -0.0242025 0.329675)
(0 -0.022088 0.294859)
(0 -0.0203796 0.268796)
(0 -0.0185766 0.242696)
(0 -0.0167458 0.217207)
(0 -0.0149384 0.192752)
(0 -0.0131912 0.169594)
(0 -0.01153 0.147892)
(0 -0.00997148 0.127727)
(0 -0.00852492 0.109127)
(0 -0.00719412 0.0920792)
(0 -0.00597883 0.0765415)
(0 -0.00487586 0.0624501)
(0 -0.00388007 0.0497264)
(0 -0.0029851 0.0382827)
(0 -0.00218391 0.028026)
(0 -0.00146878 0.0188616)
(0 -0.000831197 0.0106956)
(0 -0.000263144 0.00343683)
(0 2.28802e-07 0.00203163)
(0 3.34541e-06 0.00636883)
(0 1.09104e-05 0.011309)
(0 2.48301e-05 0.0169326)
(0 4.72931e-05 0.0233299)
(0 8.11836e-05 0.0306021)
(0 0.00013022 0.0388623)
(0 0.000199088 0.0482365)
(0 0.00029362 0.0588644)
(0 0.000420981 0.0708998)
(0 0.000589843 0.0845104)
(0 0.000810526 0.0998763)
(0 0.00109505 0.117186)
(0 0.00145702 0.136628)
(0 0.00191111 0.158376)
(0 0.00247152 0.182556)
(0 0.0031503 0.209201)
(0 0.00396324 0.238154)
(0 0.00533065 0.281035)
(0 0.0071787 0.328432)
(0 0.00881289 0.364557)
(0 0.0101108 0.388942)
(0 0.0110747 0.403858)
(0 0.0117563 0.412295)
(0 0.0122135 0.416633)
(0 0.0124971 0.418439)
(0 0.0126473 0.418678)
(0 0.0126942 0.417945)
(0 0.0126601 0.416612)
(0 0.0125616 0.414919)
(0 0.012411 0.413025)
(0 0.0122176 0.411039)
(0 0.0119883 0.409032)
(0 0.0117284 0.407057)
(0 0.011442 0.405147)
(0 0.0111322 0.403326)
(0 0.0108011 0.401608)
(0 0.0104507 0.400001)
(0 0.0100824 0.398509)
(0 0.00969732 0.397131)
(0 0.00929661 0.395865)
(0 0.00888134 0.394707)
(0 0.00845268 0.393652)
(0 0.008012 0.392695)
(0 0.00756105 0.391831)
(0 0.00710233 0.391055)
(0 0.00663827 0.390362)
(0 0.00617066 0.389746)
(0 0.00570079 0.389203)
(0 0.00522949 0.388726)
(0 0.00475714 0.388309)
(0 0.00428365 0.387947)
(0 0.0038085 0.387636)
(0 0.00333067 0.387371)
(0 0.00284864 0.387149)
(0 0.00236036 0.386966)
(0 0.00186312 0.386821)
(0 0.00135356 0.386711)
(0 0.000827558 0.386635)
(0 0.000279904 0.386596)
(0 -0.000279904 0.386596)
(0 -0.000827558 0.386635)
(0 -0.00135356 0.386711)
(0 -0.00186312 0.386821)
(0 -0.00236036 0.386966)
(0 -0.00284865 0.387149)
(0 -0.00333067 0.387371)
(0 -0.0038085 0.387636)
(0 -0.00428365 0.387947)
(0 -0.00475714 0.388309)
(0 -0.0052295 0.388726)
(0 -0.00570079 0.389203)
(0 -0.00617066 0.389746)
(0 -0.00663827 0.390362)
(0 -0.00710233 0.391055)
(0 -0.00756106 0.391831)
(0 -0.008012 0.392695)
(0 -0.00845268 0.393652)
(0 -0.00888134 0.394707)
(0 -0.00929662 0.395865)
(0 -0.00969732 0.397131)
(0 -0.0100824 0.398509)
(0 -0.0104507 0.400001)
(0 -0.0108011 0.401608)
(0 -0.0111322 0.403326)
(0 -0.011442 0.405147)
(0 -0.0117285 0.407057)
(0 -0.0119883 0.409032)
(0 -0.0122176 0.411039)
(0 -0.012411 0.413025)
(0 -0.0125616 0.414919)
(0 -0.0126601 0.416612)
(0 -0.0126942 0.417945)
(0 -0.0126473 0.418678)
(0 -0.0124971 0.418439)
(0 -0.0122135 0.416633)
(0 -0.0117563 0.412295)
(0 -0.0110747 0.403858)
(0 -0.0101108 0.388942)
(0 -0.00881289 0.364557)
(0 -0.0071787 0.328432)
(0 -0.00533065 0.281035)
(0 -0.00396324 0.238154)
(0 -0.0031503 0.209201)
(0 -0.00247152 0.182556)
(0 -0.00191111 0.158376)
(0 -0.00145702 0.136628)
(0 -0.00109505 0.117186)
(0 -0.000810526 0.0998763)
(0 -0.000589843 0.0845104)
(0 -0.000420981 0.0708998)
(0 -0.00029362 0.0588644)
(0 -0.000199088 0.0482365)
(0 -0.00013022 0.0388623)
(0 -8.11837e-05 0.0306021)
(0 -4.72931e-05 0.0233299)
(0 -2.48301e-05 0.0169326)
(0 -1.09104e-05 0.011309)
(0 -3.34541e-06 0.00636883)
(0 -2.28802e-07 0.00203163)
(0 7.51575e-08 0.00129929)
(0 1.22633e-06 0.00408645)
(0 4.06848e-06 0.00727803)
(0 9.37069e-06 0.0109327)
(0 1.80422e-05 0.0151177)
(0 3.1312e-05 0.0199098)
(0 5.08167e-05 0.0253972)
(0 7.87032e-05 0.0316806)
(0 0.000117771 0.038875)
(0 0.000171654 0.0471119)
(0 0.00024505 0.0565409)
(0 0.000343995 0.067332)
(0 0.000476188 0.0796768)
(0 0.000651363 0.0937893)
(0 0.000881743 0.109904)
(0 0.00118249 0.128267)
(0 0.00157139 0.149122)
(0 0.0020651 0.172663)
(0 0.00291683 0.209336)
(0 0.00419478 0.255258)
(0 0.00557744 0.296344)
(0 0.0069443 0.329649)
(0 0.00820015 0.354331)
(0 0.00930832 0.371563)
(0 0.0102697 0.383237)
(0 0.0110963 0.391033)
(0 0.0118005 0.396182)
(0 0.0123931 0.399518)
(0 0.0128827 0.401599)
(0 0.0132764 0.402802)
(0 0.0135803 0.403383)
(0 0.0137994 0.403523)
(0 0.0139384 0.403347)
(0 0.0140016 0.402949)
(0 0.013993 0.402394)
(0 0.0139165 0.401731)
(0 0.013776 0.400998)
(0 0.0135755 0.400222)
(0 0.0133189 0.399422)
(0 0.01301 0.398616)
(0 0.0126527 0.397813)
(0 0.0122506 0.397024)
(0 0.0118074 0.396256)
(0 0.0113267 0.395513)
(0 0.0108118 0.394801)
(0 0.010266 0.394123)
(0 0.00969242 0.393482)
(0 0.00909407 0.39288)
(0 0.00847357 0.392318)
(0 0.00783323 0.391799)
(0 0.00717494 0.391322)
(0 0.0065001 0.390888)
(0 0.00580955 0.390497)
(0 0.0051035 0.39015)
(0 0.00438139 0.389846)
(0 0.00364181 0.389587)
(0 0.00288221 0.389373)
(0 0.00209869 0.389205)
(0 0.00128561 0.389088)
(0 0.000435396 0.389026)
(0 -0.000435397 0.389026)
(0 -0.00128561 0.389088)
(0 -0.00209869 0.389205)
(0 -0.00288221 0.389373)
(0 -0.00364181 0.389587)
(0 -0.00438139 0.389846)
(0 -0.0051035 0.39015)
(0 -0.00580955 0.390497)
(0 -0.0065001 0.390888)
(0 -0.00717494 0.391322)
(0 -0.00783323 0.391799)
(0 -0.00847357 0.392318)
(0 -0.00909407 0.39288)
(0 -0.00969242 0.393482)
(0 -0.010266 0.394123)
(0 -0.0108118 0.394801)
(0 -0.0113267 0.395513)
(0 -0.0118074 0.396256)
(0 -0.0122506 0.397024)
(0 -0.0126527 0.397813)
(0 -0.01301 0.398616)
(0 -0.0133189 0.399422)
(0 -0.0135755 0.400222)
(0 -0.013776 0.400998)
(0 -0.0139165 0.401731)
(0 -0.013993 0.402394)
(0 -0.0140016 0.402949)
(0 -0.0139384 0.403347)
(0 -0.0137994 0.403523)
(0 -0.0135802 0.403383)
(0 -0.0132764 0.402802)
(0 -0.0128827 0.401599)
(0 -0.0123931 0.399518)
(0 -0.0118005 0.396182)
(0 -0.0110963 0.391033)
(0 -0.0102697 0.383237)
(0 -0.00930831 0.371563)
(0 -0.00820015 0.354331)
(0 -0.0069443 0.329649)
(0 -0.00557744 0.296344)
(0 -0.00419478 0.255258)
(0 -0.00291683 0.209336)
(0 -0.0020651 0.172663)
(0 -0.00157139 0.149122)
(0 -0.00118249 0.128267)
(0 -0.000881743 0.109904)
(0 -0.000651363 0.0937893)
(0 -0.000476188 0.0796768)
(0 -0.000343995 0.067332)
(0 -0.00024505 0.0565409)
(0 -0.000171654 0.0471119)
(0 -0.000117771 0.038875)
(0 -7.87032e-05 0.0316806)
(0 -5.08167e-05 0.0253972)
(0 -3.1312e-05 0.0199098)
(0 -1.80422e-05 0.0151177)
(0 -9.37069e-06 0.0109327)
(0 -4.06848e-06 0.00727803)
(0 -1.22634e-06 0.00408646)
(0 -7.51576e-08 0.00129929)
(0 2.96172e-08 0.00122564)
(0 4.4009e-07 0.00385054)
(0 1.45359e-06 0.0068507)
(0 3.34891e-06 0.0102789)
(0 6.46714e-06 0.0141949)
(0 1.12782e-05 0.0186666)
(0 1.842e-05 0.0237709)
(0 2.87482e-05 0.0295945)
(0 4.34067e-05 0.0362354)
(0 6.39228e-05 0.0438036)
(0 9.23327e-05 0.0524227)
(0 0.000131347 0.0622311)
(0 0.000184573 0.0733826)
(0 0.000256793 0.0860476)
(0 0.000354294 0.100413)
(0 0.000485184 0.116679)
(0 0.000660008 0.135056)
(0 0.000894129 0.155741)
(0 0.00133614 0.188032)
(0 0.00210048 0.229453)
(0 0.0030072 0.268557)
(0 0.00398435 0.302848)
(0 0.00495438 0.330596)
(0 0.00586354 0.35169)
(0 0.00669 0.367181)
(0 0.00743078 0.378419)
(0 0.00808951 0.386563)
(0 0.008671 0.392474)
(0 0.00917982 0.39676)
(0 0.00961991 0.399843)
(0 0.00999461 0.402023)
(0 0.0103068 0.403513)
(0 0.0105589 0.40447)
(0 0.0107531 0.405012)
(0 0.0108916 0.405228)
(0 0.0109763 0.405187)
(0 0.011009 0.404943)
(0 0.0109915 0.404541)
(0 0.0109254 0.404016)
(0 0.0108125 0.403399)
(0 0.0106542 0.402712)
(0 0.0104521 0.401976)
(0 0.0102076 0.40121)
(0 0.00992214 0.400427)
(0 0.00959691 0.39964)
(0 0.00923319 0.39886)
(0 0.00883215 0.398097)
(0 0.00839487 0.397357)
(0 0.00792234 0.396649)
(0 0.0074154 0.395977)
(0 0.00687471 0.395346)
(0 0.00630071 0.394761)
(0 0.00569359 0.394225)
(0 0.0050532 0.393741)
(0 0.00437898 0.393312)
(0 0.00366995 0.392941)
(0 0.00292457 0.392632)
(0 0.00214074 0.392389)
(0 0.00131582 0.392217)
(0 0.000446336 0.392125)
(0 -0.000446336 0.392125)
(0 -0.00131582 0.392217)
(0 -0.00214074 0.392389)
(0 -0.00292457 0.392632)
(0 -0.00366995 0.392941)
(0 -0.00437898 0.393312)
(0 -0.0050532 0.393741)
(0 -0.0056936 0.394225)
(0 -0.00630072 0.394761)
(0 -0.00687471 0.395346)
(0 -0.0074154 0.395977)
(0 -0.00792235 0.396649)
(0 -0.00839488 0.397357)
(0 -0.00883215 0.398097)
(0 -0.00923319 0.39886)
(0 -0.00959691 0.39964)
(0 -0.00992214 0.400427)
(0 -0.0102076 0.40121)
(0 -0.0104521 0.401976)
(0 -0.0106542 0.402712)
(0 -0.0108125 0.403399)
(0 -0.0109254 0.404016)
(0 -0.0109915 0.404541)
(0 -0.011009 0.404943)
(0 -0.0109763 0.405187)
(0 -0.0108916 0.405228)
(0 -0.0107531 0.405012)
(0 -0.0105589 0.40447)
(0 -0.0103068 0.403513)
(0 -0.00999461 0.402023)
(0 -0.00961991 0.399843)
(0 -0.00917982 0.39676)
(0 -0.008671 0.392474)
(0 -0.0080895 0.386563)
(0 -0.00743078 0.378419)
(0 -0.00668999 0.367181)
(0 -0.00586354 0.35169)
(0 -0.00495437 0.330596)
(0 -0.00398435 0.302848)
(0 -0.0030072 0.268557)
(0 -0.00210048 0.229453)
(0 -0.00133614 0.188032)
(0 -0.000894129 0.155741)
(0 -0.000660008 0.135056)
(0 -0.000485184 0.116679)
(0 -0.000354294 0.100413)
(0 -0.000256793 0.0860476)
(0 -0.000184573 0.0733826)
(0 -0.000131347 0.0622311)
(0 -9.23327e-05 0.0524227)
(0 -6.39228e-05 0.0438036)
(0 -4.34067e-05 0.0362354)
(0 -2.87482e-05 0.0295945)
(0 -1.842e-05 0.0237709)
(0 -1.12782e-05 0.0186666)
(0 -6.46714e-06 0.0141949)
(0 -3.34891e-06 0.0102789)
(0 -1.45359e-06 0.0068507)
(0 -4.4009e-07 0.00385054)
(0 -2.96172e-08 0.00122564)
(0 2.36393e-08 0.00102163)
(0 3.84254e-07 0.00321241)
(0 1.27696e-06 0.00572005)
(0 2.94652e-06 0.00859025)
(0 5.68527e-06 0.0118752)
(0 9.89076e-06 0.0156346)
(0 1.60954e-05 0.0199366)
(0 2.50021e-05 0.0248589)
(0 3.75337e-05 0.0304903)
(0 5.48969e-05 0.0369318)
(0 7.86634e-05 0.0442987)
(0 0.000110871 0.0527216)
(0 0.000154148 0.0623485)
(0 0.000211869 0.0733463)
(0 0.000288363 0.0859019)
(0 0.000389167 0.100221)
(0 0.000521139 0.116527)
(0 0.000691786 0.135047)
(0 0.000994828 0.164264)
(0 0.00148508 0.202661)
(0 0.00207279 0.240161)
(0 0.00273238 0.274599)
(0 0.00342209 0.303994)
(0 0.0041038 0.327536)
(0 0.0047557 0.345661)
(0 0.00536979 0.359399)
(0 0.00594445 0.369807)
(0 0.00647994 0.377741)
(0 0.00697677 0.383834)
(0 0.00743523 0.388542)
(0 0.00785533 0.39219)
(0 0.00823671 0.395014)
(0 0.00857877 0.397186)
(0 0.00888072 0.398838)
(0 0.00914163 0.400067)
(0 0.00936051 0.400952)
(0 0.00953634 0.401555)
(0 0.00966811 0.401927)
(0 0.00975486 0.402107)
(0 0.00979567 0.40213)
(0 0.00978972 0.402024)
(0 0.0097363 0.401814)
(0 0.00963479 0.40152)
(0 0.00948471 0.401159)
(0 0.00928574 0.400748)
(0 0.00903766 0.4003)
(0 0.00874044 0.399827)
(0 0.00839414 0.399339)
(0 0.00799899 0.398845)
(0 0.00755528 0.398354)
(0 0.00706339 0.397874)
(0 0.00652371 0.397411)
(0 0.00593658 0.396972)
(0 0.00530225 0.396564)
(0 0.00462075 0.396191)
(0 0.00389185 0.395862)
(0 0.00311484 0.395581)
(0 0.00228851 0.395356)
(0 0.00141089 0.395195)
(0 0.000479491 0.395108)
(0 -0.000479491 0.395108)
(0 -0.00141089 0.395195)
(0 -0.00228851 0.395356)
(0 -0.00311485 0.395581)
(0 -0.00389185 0.395862)
(0 -0.00462076 0.396191)
(0 -0.00530225 0.396564)
(0 -0.00593658 0.396972)
(0 -0.00652371 0.397411)
(0 -0.00706339 0.397874)
(0 -0.00755528 0.398354)
(0 -0.00799899 0.398845)
(0 -0.00839414 0.399339)
(0 -0.00874044 0.399827)
(0 -0.00903766 0.4003)
(0 -0.00928574 0.400748)
(0 -0.00948471 0.401159)
(0 -0.00963479 0.40152)
(0 -0.0097363 0.401814)
(0 -0.00978972 0.402024)
(0 -0.00979567 0.40213)
(0 -0.00975486 0.402107)
(0 -0.00966811 0.401927)
(0 -0.00953634 0.401555)
(0 -0.00936051 0.400952)
(0 -0.00914163 0.400067)
(0 -0.00888072 0.398838)
(0 -0.00857877 0.397186)
(0 -0.00823671 0.395014)
(0 -0.00785533 0.39219)
(0 -0.00743523 0.388542)
(0 -0.00697676 0.383834)
(0 -0.00647994 0.377741)
(0 -0.00594445 0.369807)
(0 -0.00536979 0.359399)
(0 -0.0047557 0.34566)
(0 -0.0041038 0.327536)
(0 -0.00342209 0.303994)
(0 -0.00273238 0.274599)
(0 -0.00207279 0.240161)
(0 -0.00148508 0.202661)
(0 -0.000994828 0.164264)
(0 -0.000691786 0.135047)
(0 -0.000521139 0.116527)
(0 -0.000389167 0.100221)
(0 -0.000288363 0.0859019)
(0 -0.000211869 0.0733463)
(0 -0.000154148 0.0623485)
(0 -0.000110871 0.0527216)
(0 -7.86634e-05 0.0442987)
(0 -5.48969e-05 0.0369318)
(0 -3.75337e-05 0.0304903)
(0 -2.50021e-05 0.0248589)
(0 -1.60954e-05 0.0199366)
(0 -9.89076e-06 0.0156346)
(0 -5.68527e-06 0.0118752)
(0 -2.94652e-06 0.00859025)
(0 -1.27696e-06 0.00572005)
(0 -3.84254e-07 0.00321241)
(0 -2.36393e-08 0.00102163)
(0 1.35337e-08 0.000974343)
(0 2.05658e-07 0.00306271)
(0 6.80408e-07 0.00545183)
(0 1.56835e-06 0.00818465)
(0 3.0283e-06 0.0113101)
(0 5.27843e-06 0.0148841)
(0 8.61399e-06 0.0189701)
(0 1.34296e-05 0.0236404)
(0 2.02508e-05 0.0289772)
(0 2.9776e-05 0.0350737)
(0 4.29317e-05 0.0420357)
(0 6.09449e-05 0.0499828)
(0 8.54375e-05 0.0590501)
(0 0.000118549 0.0693896)
(0 0.000163082 0.0811715)
(0 0.000222668 0.0945844)
(0 0.000302034 0.109834)
(0 0.000407796 0.127136)
(0 0.000605648 0.154435)
(0 0.000949186 0.190497)
(0 0.0013733 0.226213)
(0 0.00186164 0.25983)
(0 0.00238617 0.28946)
(0 0.00291648 0.31399)
(0 0.00343171 0.333439)
(0 0.00392267 0.348556)
(0 0.00438709 0.360274)
(0 0.00482518 0.369415)
(0 0.00523759 0.376613)
(0 0.00562469 0.382332)
(0 0.00598648 0.386909)
(0 0.00632254 0.390587)
(0 0.00663217 0.393549)
(0 0.0069144 0.39593)
(0 0.00716804 0.397835)
(0 0.00739178 0.399345)
(0 0.0075842 0.400523)
(0 0.00774381 0.401423)
(0 0.00786914 0.402086)
(0 0.00795869 0.402549)
(0 0.00801101 0.402841)
(0 0.0080247 0.402988)
(0 0.00799838 0.403014)
(0 0.00793078 0.402936)
(0 0.00782067 0.402774)
(0 0.00766689 0.402542)
(0 0.00746837 0.402255)
(0 0.0072241 0.401925)
(0 0.00693315 0.401564)
(0 0.00659465 0.401182)
(0 0.00620779 0.40079)
(0 0.00577181 0.400397)
(0 0.00528601 0.400012)
(0 0.00474969 0.399643)
(0 0.0041622 0.399299)
(0 0.00352291 0.398988)
(0 0.00283123 0.398718)
(0 0.00208668 0.398499)
(0 0.00128906 0.398341)
(0 0.000438498 0.398255)
(0 -0.000438498 0.398255)
(0 -0.00128906 0.398341)
(0 -0.00208669 0.398499)
(0 -0.00283123 0.398718)
(0 -0.00352291 0.398988)
(0 -0.0041622 0.399299)
(0 -0.00474969 0.399643)
(0 -0.00528601 0.400012)
(0 -0.00577182 0.400397)
(0 -0.00620779 0.40079)
(0 -0.00659465 0.401182)
(0 -0.00693315 0.401564)
(0 -0.0072241 0.401925)
(0 -0.00746837 0.402255)
(0 -0.00766689 0.402542)
(0 -0.00782067 0.402774)
(0 -0.00793078 0.402936)
(0 -0.00799838 0.403014)
(0 -0.0080247 0.402988)
(0 -0.00801101 0.402841)
(0 -0.00795869 0.402549)
(0 -0.00786914 0.402086)
(0 -0.00774381 0.401423)
(0 -0.0075842 0.400523)
(0 -0.00739178 0.399345)
(0 -0.00716804 0.397835)
(0 -0.0069144 0.39593)
(0 -0.00663217 0.393549)
(0 -0.00632254 0.390587)
(0 -0.00598647 0.386909)
(0 -0.00562469 0.382332)
(0 -0.00523759 0.376613)
(0 -0.00482518 0.369415)
(0 -0.00438709 0.360274)
(0 -0.00392267 0.348556)
(0 -0.00343171 0.333439)
(0 -0.00291648 0.31399)
(0 -0.00238617 0.28946)
(0 -0.00186163 0.259829)
(0 -0.0013733 0.226213)
(0 -0.000949186 0.190497)
(0 -0.000605648 0.154435)
(0 -0.000407796 0.127136)
(0 -0.000302034 0.109834)
(0 -0.000222668 0.0945844)
(0 -0.000163082 0.0811715)
(0 -0.000118549 0.0693896)
(0 -8.54375e-05 0.0590501)
(0 -6.09449e-05 0.0499828)
(0 -4.29317e-05 0.0420357)
(0 -2.9776e-05 0.0350737)
(0 -2.02508e-05 0.0289772)
(0 -1.34296e-05 0.0236404)
(0 -8.61399e-06 0.0189701)
(0 -5.27843e-06 0.0148841)
(0 -3.0283e-06 0.0113101)
(0 -1.56835e-06 0.00818465)
(0 -6.80407e-07 0.00545183)
(0 -2.05658e-07 0.00306271)
(0 -1.35337e-08 0.000974344)
(0 1.13288e-08 0.000890673)
(0 1.82023e-07 0.00280055)
(0 6.04733e-07 0.00498659)
(0 1.3958e-06 0.00748856)
(0 2.69503e-06 0.010352)
(0 4.69316e-06 0.0136287)
(0 7.64671e-06 0.0173782)
(0 1.1896e-05 0.0216681)
(0 1.78902e-05 0.0265757)
(0 2.62205e-05 0.0321892)
(0 3.76628e-05 0.0386089)
(0 5.32315e-05 0.0459491)
(0 7.42486e-05 0.0543394)
(0 0.000102431 0.0639269)
(0 0.000140007 0.0748771)
(0 0.00018986 0.0873754)
(0 0.00025565 0.101626)
(0 0.000341739 0.117849)
(0 0.000497372 0.143547)
(0 0.00075699 0.177811)
(0 0.00107726 0.212201)
(0 0.00145042 0.245211)
(0 0.0018581 0.275043)
(0 0.00227772 0.300388)
(0 0.0026918 0.320945)
(0 0.00309153 0.337218)
(0 0.00347421 0.350026)
(0 0.00383982 0.360158)
(0 0.00418891 0.368255)
(0 0.00452188 0.374794)
(0 0.00483872 0.380129)
(0 0.00513903 0.384514)
(0 0.005422 0.388141)
(0 0.00568655 0.391149)
(0 0.00593134 0.393649)
(0 0.00615487 0.395723)
(0 0.00635548 0.397438)
(0 0.00653139 0.398849)
(0 0.00668069 0.399998)
(0 0.00680142 0.400921)
(0 0.00689156 0.40165)
(0 0.00694909 0.402209)
(0 0.00697196 0.402622)
(0 0.00695816 0.402908)
(0 0.0069057 0.403085)
(0 0.00681266 0.403169)
(0 0.00667715 0.403173)
(0 0.00649741 0.403111)
(0 0.00627176 0.402995)
(0 0.0059986 0.402835)
(0 0.00567651 0.402643)
(0 0.00530416 0.402428)
(0 0.00488039 0.4022)
(0 0.00440417 0.401967)
(0 0.00387467 0.401739)
(0 0.00329121 0.401525)
(0 0.00265335 0.401334)
(0 0.00196089 0.401174)
(0 0.00121399 0.401058)
(0 0.000413515 0.400993)
(0 -0.000413515 0.400993)
(0 -0.00121399 0.401058)
(0 -0.00196089 0.401174)
(0 -0.00265335 0.401334)
(0 -0.00329121 0.401525)
(0 -0.00387467 0.401739)
(0 -0.00440417 0.401967)
(0 -0.00488039 0.4022)
(0 -0.00530416 0.402428)
(0 -0.00567651 0.402643)
(0 -0.0059986 0.402835)
(0 -0.00627176 0.402995)
(0 -0.00649742 0.403111)
(0 -0.00667715 0.403173)
(0 -0.00681266 0.403169)
(0 -0.00690571 0.403085)
(0 -0.00695816 0.402908)
(0 -0.00697196 0.402622)
(0 -0.00694909 0.402209)
(0 -0.00689156 0.40165)
(0 -0.00680142 0.400921)
(0 -0.00668069 0.399998)
(0 -0.00653139 0.398849)
(0 -0.00635548 0.397438)
(0 -0.00615487 0.395723)
(0 -0.00593134 0.393649)
(0 -0.00568655 0.391149)
(0 -0.005422 0.38814)
(0 -0.00513903 0.384514)
(0 -0.00483872 0.380129)
(0 -0.00452187 0.374794)
(0 -0.0041889 0.368255)
(0 -0.00383981 0.360158)
(0 -0.00347421 0.350026)
(0 -0.00309153 0.337218)
(0 -0.0026918 0.320945)
(0 -0.00227772 0.300388)
(0 -0.0018581 0.275043)
(0 -0.00145042 0.245211)
(0 -0.00107726 0.212201)
(0 -0.00075699 0.177811)
(0 -0.000497372 0.143547)
(0 -0.000341739 0.117849)
(0 -0.00025565 0.101626)
(0 -0.00018986 0.0873754)
(0 -0.000140007 0.0748771)
(0 -0.000102431 0.0639269)
(0 -7.42486e-05 0.0543394)
(0 -5.32315e-05 0.0459491)
(0 -3.76628e-05 0.0386089)
(0 -2.62205e-05 0.0321892)
(0 -1.78902e-05 0.0265757)
(0 -1.1896e-05 0.0216681)
(0 -7.64671e-06 0.0173782)
(0 -4.69316e-06 0.0136287)
(0 -2.69503e-06 0.010352)
(0 -1.3958e-06 0.00748856)
(0 -6.04732e-07 0.00498659)
(0 -1.82023e-07 0.00280055)
(0 -1.13289e-08 0.000890674)
(0 7.96326e-09 0.000855918)
(0 1.23269e-07 0.00269098)
(0 4.08529e-07 0.004791)
(0 9.42394e-07 0.00719403)
(0 1.82031e-06 0.00994353)
(0 3.17324e-06 0.0130891)
(0 5.17832e-06 0.0166874)
(0 8.07209e-06 0.0208028)
(0 1.21693e-05 0.025509)
(0 1.78878e-05 0.0308898)
(0 2.57815e-05 0.0370403)
(0 3.65831e-05 0.044069)
(0 5.12605e-05 0.0520985)
(0 7.10895e-05 0.0612681)
(0 9.77455e-05 0.0717344)
(0 0.000133413 0.0836733)
(0 0.000180942 0.0972796)
(0 0.000244185 0.112764)
(0 0.000361827 0.137298)
(0 0.000565968 0.170097)
(0 0.000822184 0.203249)
(0 0.00112521 0.235488)
(0 0.00146138 0.265172)
(0 0.00181166 0.290923)
(0 0.00215943 0.312204)
(0 0.00249527 0.329302)
(0 0.00281592 0.342913)
(0 0.00312128 0.353782)
(0 0.0034122 0.362543)
(0 0.00368956 0.369686)
(0 0.00395388 0.375572)
(0 0.00420529 0.380469)
(0 0.00444351 0.384576)
(0 0.00466792 0.388038)
(0 0.0048776 0.390969)
(0 0.00507139 0.393454)
(0 0.00524792 0.395562)
(0 0.00540571 0.397348)
(0 0.00554312 0.398855)
(0 0.00565838 0.40012)
(0 0.00574965 0.401174)
(0 0.00581498 0.402042)
(0 0.00585238 0.402748)
(0 0.00585981 0.40331)
(0 0.00583521 0.403747)
(0 0.0057765 0.404073)
(0 0.00568162 0.404304)
(0 0.00554853 0.404451)
(0 0.00537523 0.404527)
(0 0.00515978 0.404543)
(0 0.0049003 0.40451)
(0 0.00459505 0.404439)
(0 0.0042424 0.404338)
(0 0.00384091 0.404217)
(0 0.00338933 0.404085)
(0 0.00288675 0.403952)
(0 0.00233261 0.403827)
(0 0.00172688 0.40372)
(0 0.00107034 0.403638)
(0 0.000364782 0.403593)
(0 -0.000364782 0.403593)
(0 -0.00107034 0.403638)
(0 -0.00172688 0.40372)
(0 -0.00233261 0.403827)
(0 -0.00288675 0.403952)
(0 -0.00338933 0.404085)
(0 -0.00384091 0.404217)
(0 -0.0042424 0.404338)
(0 -0.00459505 0.404439)
(0 -0.0049003 0.40451)
(0 -0.00515978 0.404543)
(0 -0.00537523 0.404527)
(0 -0.00554854 0.404451)
(0 -0.00568162 0.404304)
(0 -0.0057765 0.404073)
(0 -0.00583521 0.403747)
(0 -0.00585981 0.40331)
(0 -0.00585238 0.402748)
(0 -0.00581498 0.402042)
(0 -0.00574965 0.401174)
(0 -0.00565838 0.40012)
(0 -0.00554311 0.398855)
(0 -0.00540571 0.397348)
(0 -0.00524792 0.395562)
(0 -0.00507139 0.393454)
(0 -0.0048776 0.390969)
(0 -0.00466792 0.388038)
(0 -0.00444351 0.384576)
(0 -0.00420529 0.380469)
(0 -0.00395388 0.375572)
(0 -0.00368956 0.369686)
(0 -0.0034122 0.362543)
(0 -0.00312128 0.353782)
(0 -0.00281592 0.342913)
(0 -0.00249527 0.329302)
(0 -0.00215943 0.312204)
(0 -0.00181165 0.290923)
(0 -0.00146138 0.265172)
(0 -0.00112521 0.235488)
(0 -0.000822183 0.203249)
(0 -0.000565968 0.170097)
(0 -0.000361827 0.137298)
(0 -0.000244185 0.112764)
(0 -0.000180942 0.0972796)
(0 -0.000133413 0.0836733)
(0 -9.77455e-05 0.0717344)
(0 -7.10895e-05 0.0612681)
(0 -5.12605e-05 0.0520985)
(0 -3.65831e-05 0.044069)
(0 -2.57815e-05 0.0370403)
(0 -1.78878e-05 0.0308898)
(0 -1.21693e-05 0.025509)
(0 -8.07209e-06 0.0208028)
(0 -5.17832e-06 0.0166874)
(0 -3.17324e-06 0.0130891)
(0 -1.82031e-06 0.00994353)
(0 -9.42394e-07 0.00719403)
(0 -4.08528e-07 0.004791)
(0 -1.23269e-07 0.00269098)
(0 -7.96328e-09 0.000855919)
(0 6.95567e-09 0.000811643)
(0 1.10627e-07 0.00255205)
(0 3.6737e-07 0.0045441)
(0 8.47993e-07 0.00682404)
(0 1.63791e-06 0.0094333)
(0 2.85394e-06 0.0124192)
(0 4.6536e-06 0.0158359)
(0 7.24646e-06 0.019745)
(0 1.09102e-05 0.024217)
(0 1.60116e-05 0.0293322)
(0 2.30345e-05 0.0351823)
(0 3.26148e-05 0.0418713)
(0 4.55867e-05 0.0495179)
(0 6.30415e-05 0.0582564)
(0 8.6405e-05 0.0682391)
(0 0.000117535 0.0796368)
(0 0.000158827 0.0926403)
(0 0.000213288 0.107458)
(0 0.000312934 0.130973)
(0 0.000482482 0.162541)
(0 0.000695148 0.19467)
(0 0.000948183 0.226265)
(0 0.00123152 0.25582)
(0 0.00152969 0.281927)
(0 0.00182787 0.303866)
(0 0.00211669 0.321726)
(0 0.00239243 0.336081)
(0 0.00265466 0.347627)
(0 0.00290419 0.356991)
(0 0.003142 0.364671)
(0 0.00336884 0.371043)
(0 0.00358509 0.376384)
(0 0.00379076 0.380903)
(0 0.00398554 0.384753)
(0 0.00416879 0.388052)
(0 0.00433963 0.390889)
(0 0.00449694 0.393336)
(0 0.00463942 0.395448)
(0 0.00476561 0.397271)
(0 0.00487389 0.398841)
(0 0.00496255 0.400189)
(0 0.00502976 0.401342)
(0 0.00507359 0.402321)
(0 0.00509203 0.403147)
(0 0.00508299 0.403836)
(0 0.00504438 0.404403)
(0 0.00497405 0.404862)
(0 0.00486986 0.405226)
(0 0.00472968 0.405506)
(0 0.00455144 0.405713)
(0 0.00433312 0.405858)
(0 0.00407282 0.405949)
(0 0.00376879 0.405997)
(0 0.00341944 0.40601)
(0 0.00302345 0.405996)
(0 0.00257984 0.405966)
(0 0.00208803 0.405926)
(0 0.00154801 0.405885)
(0 0.000960567 0.405851)
(0 0.0003276 0.405831)
(0 -0.0003276 0.405831)
(0 -0.000960567 0.405851)
(0 -0.00154801 0.405885)
(0 -0.00208803 0.405926)
(0 -0.00257984 0.405966)
(0 -0.00302345 0.405996)
(0 -0.00341944 0.40601)
(0 -0.00376879 0.405997)
(0 -0.00407282 0.405949)
(0 -0.00433312 0.405858)
(0 -0.00455144 0.405713)
(0 -0.00472968 0.405506)
(0 -0.00486986 0.405226)
(0 -0.00497405 0.404862)
(0 -0.00504438 0.404403)
(0 -0.00508299 0.403836)
(0 -0.00509203 0.403147)
(0 -0.00507359 0.402321)
(0 -0.00502976 0.401342)
(0 -0.00496255 0.400189)
(0 -0.00487389 0.398841)
(0 -0.0047656 0.397271)
(0 -0.00463942 0.395448)
(0 -0.00449694 0.393336)
(0 -0.00433962 0.390889)
(0 -0.00416879 0.388052)
(0 -0.00398554 0.384753)
(0 -0.00379076 0.380903)
(0 -0.00358509 0.376384)
(0 -0.00336884 0.371043)
(0 -0.003142 0.364671)
(0 -0.00290419 0.356991)
(0 -0.00265466 0.347627)
(0 -0.00239243 0.336081)
(0 -0.00211669 0.321726)
(0 -0.00182787 0.303866)
(0 -0.00152969 0.281927)
(0 -0.00123152 0.25582)
(0 -0.000948182 0.226265)
(0 -0.000695148 0.19467)
(0 -0.000482482 0.162541)
(0 -0.000312934 0.130973)
(0 -0.000213288 0.107458)
(0 -0.000158827 0.0926403)
(0 -0.000117535 0.0796368)
(0 -8.6405e-05 0.0682391)
(0 -6.30415e-05 0.0582564)
(0 -4.55867e-05 0.0495179)
(0 -3.26148e-05 0.0418713)
(0 -2.30345e-05 0.0351823)
(0 -1.60116e-05 0.0293322)
(0 -1.09102e-05 0.024217)
(0 -7.24646e-06 0.019745)
(0 -4.6536e-06 0.0158359)
(0 -2.85394e-06 0.0124192)
(0 -1.63791e-06 0.0094333)
(0 -8.47993e-07 0.00682404)
(0 -3.6737e-07 0.00454409)
(0 -1.10627e-07 0.00255205)
(0 -6.95569e-09 0.000811644)
(0 5.55335e-09 0.000784252)
(0 8.68926e-08 0.00246584)
(0 2.88258e-07 0.00439047)
(0 6.65253e-07 0.00659311)
(0 1.28526e-06 0.00911372)
(0 2.24069e-06 0.011998)
(0 3.65648e-06 0.015298)
(0 5.69941e-06 0.0190733)
(0 8.59123e-06 0.0233916)
(0 1.26263e-05 0.0283305)
(0 1.81944e-05 0.0339781)
(0 2.5811e-05 0.0404345)
(0 3.61566e-05 0.047814)
(0 5.01277e-05 0.0562459)
(0 6.89025e-05 0.0658765)
(0 9.40224e-05 0.0768708)
(0 0.000127501 0.0894129)
(0 0.000172005 0.103705)
(0 0.000254501 0.126394)
(0 0.000397504 0.156908)
(0 0.000578598 0.188102)
(0 0.000796149 0.219037)
(0 0.00104247 0.248352)
(0 0.00130432 0.274656)
(0 0.00156776 0.297099)
(0 0.00182307 0.315594)
(0 0.00206582 0.330589)
(0 0.00229519 0.342725)
(0 0.00251189 0.352613)
(0 0.00271703 0.360755)
(0 0.0029116 0.367537)
(0 0.00309627 0.37325)
(0 0.00327137 0.378109)
(0 0.00343688 0.382274)
(0 0.0035925 0.38587)
(0 0.00373768 0.38899)
(0 0.00387164 0.391707)
(0 0.00399338 0.394079)
(0 0.00410176 0.396152)
(0 0.00419544 0.397965)
(0 0.00427296 0.399548)
(0 0.00433275 0.400928)
(0 0.00437313 0.402127)
(0 0.00439232 0.403164)
(0 0.00438845 0.404057)
(0 0.00435957 0.40482)
(0 0.00430369 0.405466)
(0 0.00421877 0.406008)
(0 0.00410277 0.406457)
(0 0.00395366 0.406823)
(0 0.00376943 0.407116)
(0 0.00354817 0.407345)
(0 0.00328808 0.407518)
(0 0.00298752 0.407646)
(0 0.0026451 0.407734)
(0 0.00225976 0.407792)
(0 0.0018309 0.407826)
(0 0.0013585 0.407844)
(0 0.000843429 0.407852)
(0 0.000287726 0.407854)
(0 -0.000287726 0.407854)
(0 -0.000843429 0.407852)
(0 -0.0013585 0.407844)
(0 -0.0018309 0.407826)
(0 -0.00225976 0.407792)
(0 -0.0026451 0.407734)
(0 -0.00298752 0.407646)
(0 -0.00328808 0.407518)
(0 -0.00354817 0.407345)
(0 -0.00376943 0.407116)
(0 -0.00395366 0.406823)
(0 -0.00410277 0.406457)
(0 -0.00421877 0.406008)
(0 -0.00430369 0.405466)
(0 -0.00435957 0.40482)
(0 -0.00438845 0.404057)
(0 -0.00439232 0.403164)
(0 -0.00437313 0.402127)
(0 -0.00433275 0.400928)
(0 -0.00427296 0.399548)
(0 -0.00419544 0.397965)
(0 -0.00410176 0.396152)
(0 -0.00399338 0.394079)
(0 -0.00387164 0.391707)
(0 -0.00373768 0.38899)
(0 -0.0035925 0.38587)
(0 -0.00343687 0.382274)
(0 -0.00327137 0.378109)
(0 -0.00309627 0.37325)
(0 -0.0029116 0.367537)
(0 -0.00271703 0.360755)
(0 -0.00251188 0.352613)
(0 -0.00229519 0.342725)
(0 -0.00206582 0.330589)
(0 -0.00182306 0.315594)
(0 -0.00156776 0.297099)
(0 -0.00130432 0.274656)
(0 -0.00104247 0.248352)
(0 -0.000796149 0.219037)
(0 -0.000578598 0.188102)
(0 -0.000397504 0.156908)
(0 -0.000254501 0.126394)
(0 -0.000172005 0.103705)
(0 -0.000127501 0.0894129)